(written by ASE)

64 atoms
1 atom types

0.0      10.224764055957477  xlo xhi
0.0      8.8549054201611899  ylo yhi
0.0      8.3484848924819897  zlo zhi
     5.1123820279787395      5.1123820279787395      2.9516351400537291  xy xz yz

Atoms # atomic

     1   1                       0                       0                       0
     2   1      1.2780955069946847     0.73790878501343249       2.087121223120497
     3   1      2.5561910139893693       1.475817570026865      4.1742424462409939
     4   1      3.8342865209840538      2.2137263550402975      6.2613636693614918
     5   1      1.2780955069946847      2.2137263550402975 -8.4849489481402329e-17
     6   1      2.5561910139893693        2.95163514005373       2.087121223120497
     7   1      3.8342865209840538      3.6895439250671624      4.1742424462409939
     8   1      5.1123820279787386      4.4274527100805949      6.2613636693614909
     9   1      2.5561910139893693      4.4274527100805949 -1.6969897896280466e-16
    10   1      3.8342865209840538       5.165361495094027      2.0871212231204979
    11   1      5.1123820279787386      5.9032702801074599      4.1742424462409939
    12   1      6.3904775349734226      6.6411790651208928      6.2613636693614927
    13   1      3.8342865209840538       6.641179065120892  1.8954074140585563e-16
    14   1      5.1123820279787386      7.3790878501343249       2.087121223120497
    15   1      6.3904775349734235      8.1169966351477569      4.1742424462409948
    16   1      7.6685730419681075      8.8549054201611899      6.2613636693614909
    17   1      2.5561910139893693 -4.1697938563644177e-17 -8.4849489481402329e-17
    18   1      3.8342865209840538     0.73790878501343249       2.087121223120497
    19   1      5.1123820279787386       1.475817570026865      4.1742424462409939
    20   1      6.3904775349734235      2.2137263550402975      6.2613636693614909
    21   1      3.8342865209840538      2.2137263550402975 -1.6969897896280466e-16
    22   1      5.1123820279787386        2.95163514005373       2.087121223120497
    23   1      6.3904775349734226      3.6895439250671624      4.1742424462409948
    24   1      7.6685730419681075      4.4274527100805949      6.2613636693614909
    25   1      5.1123820279787386      4.4274527100805949 -2.5454846844420699e-16
    26   1      6.3904775349734235       5.165361495094027       2.087121223120497
    27   1      7.6685730419681075      5.9032702801074599      4.1742424462409939
    28   1      8.9466685489627924       6.641179065120892      6.2613636693614927
    29   1      6.3904775349734235       6.641179065120892  5.4878046177451591e-16
    30   1      7.6685730419681075      7.3790878501343249      2.0871212231204965
    31   1      8.9466685489627924      8.1169966351477569      4.1742424462409957
    32   1      10.224764055957477      8.8549054201611899      6.2613636693614918
    33   1      5.1123820279787386 -8.3395877127288354e-17 -1.6969897896280466e-16
    34   1      6.3904775349734226     0.73790878501343249       2.087121223120497
    35   1      7.6685730419681075       1.475817570026865      4.1742424462409939
    36   1      8.9466685489627924      2.2137263550402975      6.2613636693614927
    37   1      6.3904775349734235      2.2137263550402975 -2.5454846844420699e-16
    38   1      7.6685730419681075        2.95163514005373       2.087121223120497
    39   1      8.9466685489627924      3.6895439250671624      4.1742424462409939
    40   1      10.224764055957477      4.4274527100805949      6.2613636693614909
    41   1      7.6685730419681075      4.4274527100805949 -3.3939795792560932e-16
    42   1      8.9466685489627924       5.165361495094027      2.0871212231204974
    43   1      10.224764055957477      5.9032702801074599      4.1742424462409939
    44   1      11.502859562952162       6.641179065120892      6.2613636693614936
    45   1      8.9466685489627924      6.6411790651208928 -4.9294828725923272e-16
    46   1      10.224764055957477      7.3790878501343249      2.0871212231204965
    47   1      11.502859562952162      8.1169966351477569      4.1742424462409948
    48   1      12.780955069946847      8.8549054201611899      6.2613636693614909
    49   1      7.6685730419681075 -1.2509381569093253e-16  1.8954074140585563e-16
    50   1      8.9466685489627924      0.7379087850134326       2.087121223120497
    51   1      10.224764055957477      1.4758175700268648      4.1742424462409948
    52   1      11.502859562952162      2.2137263550402975      6.2613636693614909
    53   1      8.9466685489627924      2.2137263550402975 -3.3939795792560932e-16
    54   1      10.224764055957477        2.95163514005373      2.0871212231204965
    55   1      11.502859562952162       3.689543925067162      4.1742424462409957
    56   1      12.780955069946845      4.4274527100805949      6.2613636693614918
    57   1      10.224764055957477      4.4274527100805949 -4.9294828725923272e-16
    58   1      11.502859562952162      5.1653614950940279      2.0871212231204965
    59   1      12.780955069946847      5.9032702801074599      4.1742424462409931
    60   1      14.059050576941532      6.6411790651208928      6.2613636693614909
    61   1      11.502859562952162       6.641179065120892  3.7908148281171126e-16
    62   1      12.780955069946847      7.3790878501343249      2.0871212231204965
    63   1      14.059050576941532      8.1169966351477569      4.1742424462409957
    64   1      15.337146083936215      8.8549054201611899      6.2613636693614918
