0.000000000000000000e+00 0.000000000000000000e+00 0.000000000000000000e+00 1.787798739562021622e+00 1.787798739562021622e+00 0.000000000000000000e+00 1.787798739562021622e+00 0.000000000000000000e+00 1.787798739562021622e+00 0.000000000000000000e+00 1.787798739562021622e+00 1.787798739562021622e+00
-4.595062178258696450e-03 9.354731992305339054e-04 2.628160688288107868e-04 1.790410018066811881e+00 1.785185643581032489e+00 1.985924383679024338e-03 1.787786907909963086e+00 1.840536657020613951e-03 1.782280219979861080e+00 1.995615325526694205e-03 1.787635826044319254e+00 1.791068518691674161e+00
-9.197806527701291729e-03 1.870542713505674677e-03 5.241954625905096039e-04 1.793024733793459058e+00 1.782569302030211578e+00 3.974202225618807954e-03 1.787772729950839024e+00 3.682624408227671946e-03 1.776751691585236825e+00 3.997821907446405705e-03 1.787475009972098183e+00 1.794347389850597274e+00
-1.381595169060596991e-02 2.804784119404650500e-03 7.827369046330275807e-04 1.795646246015794478e+00 1.779946546215072978e+00 5.967193777715321806e-03 1.787753932677331514e+00 5.527793609342238589e-03 1.771203060108905714e+00 6.013252121523162373e-03 1.787318355180223195e+00 1.797644488332789114e+00
-1.845710224769133226e-02 3.737815900676438614e-03 1.037163191536821794e-03 1.798277953339222357e+00 1.777314278953080251e+00 7.967334379411595419e-03 1.787728323533066543e+00 7.377546011305546360e-03 1.765624262389322574e+00 8.048304499445853646e-03 1.787167838258981289e+00 1.800968719163772214e+00
-2.312879806136160926e-02 4.669003031208746220e-03 1.285970069442424679e-03 1.800923119569121100e+00 1.774669753470249578e+00 9.976955677823766758e-03 1.787693480050751793e+00 9.233078724153607336e-03 1.760005146947684285e+00 1.010967792309162318e-02 1.787025643898431104e+00 1.804329406786652656e+00
-2.783851356058715532e-02 5.597658281166087088e-03 1.527688682905411826e-03 1.803585054278517896e+00 1.772010387827641642e+00 1.199850445430679889e-02 1.787647023742944707e+00 1.109548981387225783e-02 1.754335383882873689e+00 1.220391466316802023e-02 1.786893942843803540e+00 1.807735902103957626e+00
-3.259364701411202742e-02 6.522976425996160864e-03 1.760755423148162692e-03 1.806266996243609091e+00 1.769333945489033111e+00 1.403444930136028314e-02 1.787586522845798997e+00 1.296563992677472396e-02 1.748604529947333397e+00 1.433760704874730875e-02 1.786774917282239139e+00 1.811197744809760923e+00
-3.740157166149794127e-02 7.444024592316664073e-03 1.983558768386835779e-03 1.808972146696817385e+00 1.766638659751709639e+00 1.608728455578565045e-02 1.787509530935520230e+00 1.484401927727539532e-02 1.742802026044147912e+00 1.651737279564384833e-02 1.786670775502741337e+00 1.814724609755722806e+00
-4.226914049287337077e-02 8.359604239852595764e-03 2.194640589969444697e-03 1.811703496267875080e+00 1.763923277011195001e+00 1.815959930771753744e-02 1.787413668809544998e+00 1.673089746542419723e-02 1.736917220110867355e+00 1.874945453949644625e-02 1.786583700050011547e+00 1.818326018757929097e+00
-4.720339135675648279e-02 9.268246513159531311e-03 2.392222385709872733e-03 1.814464027720198880e+00 1.761187164029175856e+00 2.025394832155478012e-02 1.787296313767122946e+00 1.862595626304548724e-02 1.730939155444136457e+00 2.104052935103761443e-02 1.786516112318662364e+00 1.822012152615082536e+00
-5.187914547356556327e-02 1.010708919051673746e-02 2.561233012233612126e-03 1.817070965807209504e+00 1.758614417593059365e+00 2.223210257435192030e-02 1.787162646849001169e+00 2.040100084639947381e-02 1.725258780006007520e+00 2.324301194139827276e-02 1.786474971851627513e+00 1.825545363531449805e+00
-5.663448917222221879e-02 1.093533880278229134e-02 2.713142986253693281e-03 1.819712647259805083e+00 1.756021742206833380e+00 2.423746640884569953e-02 1.787002165810263721e+00 2.218231023409663119e-02 1.719463416928548094e+00 2.551715522619654730e-02 1.786458087522771132e+00 1.829183452800395848e+00
-6.147541872969893018e-02 1.175069945881484709e-02 2.845979293081134232e-03 1.822391569275265244e+00 1.753410715066545889e+00 2.627261354010158867e-02 1.786812202540072114e+00 2.396814775844135353e-02 1.713542318680854049e+00 2.786912603840467628e-02 1.786467916840241310e+00 1.832936567610006451e+00
-6.640779633806272175e-02 1.255060352206464371e-02 2.957709205549054979e-03 1.825110239777661958e+00 1.750783746124897400e+00 2.834015629963784061e-02 1.786589862592266931e+00 2.575619392934893129e-02 1.707484475640728583e+00 3.030517309217717684e-02 1.786506935547732100e+00 1.836815137978127677e+00
-7.108464709061865228e-02 1.327492124240449954e-02 3.038132259169008548e-03 1.827676678144705580e+00 1.748332050111197855e+00 3.029491005473285148e-02 1.786348054588866807e+00 2.741559546635384190e-02 1.701711890907009694e+00 3.265739312352960305e-02 1.786574912304087270e+00 1.840552545903131776e+00
-7.586385003613399514e-02 1.397772638051120522e-02 3.093041994536420598e-03 1.830287554037219877e+00 1.745871837024302931e+00 3.228728159822648325e-02 1.786067977323207545e+00 2.907080962115094966e-02 1.695780889326977903e+00 3.510579779974971198e-02 1.786677106098078172e+00 1.844436266204302344e+00
-8.075054080526804234e-02 1.465556133362245009e-02 3.120034895025823683e-03 1.832945088973918280e+00 1.743408174916079689e+00 3.431984035446723758e-02 1.785746590107192722e+00 3.071772731711725282e-02 1.689680843509806296e+00 3.765634084819998589e-02 1.786816015557223913e+00 1.848476760364743843e+00
-8.541019186127013496e-02 1.525746740158524795e-02 3.114721199612097667e-03 1.835466829154435375e+00 1.741118403767379252e+00 3.625396183942845851e-02 1.785402968753373454e+00 3.223708342765731205e-02 1.683824819348433977e+00 4.013787307750443095e-02 1.786984524527421403e+00 1.852403976736568980e+00
-9.018687758616018846e-02 1.582656807779658087e-02 3.076391867315131541e-03 1.838039485485495339e+00 1.738838147641130760e+00 3.823329067599749026e-02 1.785011594222541298e+00 3.373808492365779066e-02 1.677779087929649249e+00 4.273327700216678071e-02 1.787194678481458077e+00 1.856508708293521659e+00
-9.508521514896296767e-02 1.635855798533183275e-02 3.002246132629527667e-03 1.840665240154239601e+00 1.736575200982278577e+00 4.026029903227139328e-02 1.784569042522549998e+00 3.521481991224668928e-02 1.671533651525341391e+00 4.544841159621634818e-02 1.787448900244186012e+00 1.860801282433801163e+00
-9.971069243205833710e-02 1.680539539646149286e-02 2.895243160029009610e-03 1.843132440316168852e+00 1.734522851651550734e+00 4.217227112108843518e-02 1.784107662798913196e+00 3.654031177574536965e-02 1.665587533391847286e+00 4.806806844101985804e-02 1.787728920300285740e+00 1.864942431093518760e+00
-1.044667469594938447e-01 1.720580403188447585e-02 2.746323815740468396e-03 1.845657261589033427e+00 1.732505934704042128e+00 4.413656421269800817e-02 1.783587794524391867e+00 3.782808108583928658e-02 1.659423064962214811e+00 5.081916997011193260e-02 1.788057659302277669e+00 1.869291526490949762e+00
-1.090622432152865001e-01 1.752994946379471744e-02 2.561421088661014218e-03 1.848085222429106889e+00 1.730660008906500957e+00 4.603332034644264104e-02 1.783037854402391709e+00 3.899064834728344087e-02 1.653414738226219205e+00 5.353664550783107656e-02 1.788416872764023946e+00 1.873587999462720255e+00
-1.137969145971175905e-01 1.779786290438976903e-02 2.327921343563541488e-03 1.850575668980486421e+00 1.728870214983545539e+00 4.798659344662154630e-02 1.782421571214525269e+00 4.010044193529421763e-02 1.647171917729026935e+00 5.639715352614914357e-02 1.788828959300813759e+00 1.878111046604831191e+00
-1.183544015365876750e-01 1.798629581886036430e-02 2.058032742921022881e-03 1.852962629874505884e+00 1.727269146458934479e+00 4.986591961533468759e-02 1.781776415434574545e+00 4.107416759147591856e-02 1.641110557731220831e+00 5.921283499399091627e-02 1.789267868897212788e+00 1.882562969034566658e+00
-1.230599035517438294e-01 1.810854049083514272e-02 1.732207852874836224e-03 1.855417807447470757e+00 1.725746772186562472e+00 5.180527935060282724e-02 1.781056242189272609e+00 4.197900542906506105e-02 1.634801796780438021e+00 6.218333303904355347e-02 1.789763161017580595e+00 1.887258195140127492e+00
-1.275747969013633354e-01 1.815067032569266797e-02 1.370232242075713949e-03 1.857765411382477749e+00 1.724426029431635587e+00 5.366469516231321679e-02 1.780308844344764774e+00 4.274054440404310290e-02 1.628700995797078832e+00 6.509802029816404156e-02 1.790280234605112319e+00 1.891861555922575544e+00
-1.322468130885677273e-01 1.811698176136385813e-02 9.443707159975862388e-04 1.860187956980169366e+00 1.723207403952913497e+00 5.558678583443642934e-02 1.779476876826240561e+00 4.341669167514419780e-02 1.622344392636905663e+00 6.817945876376120540e-02 1.790856401734621572e+00 1.896721929936703521e+00
-1.367160861050706055e-01 1.800546781498367846e-02 4.836549808124533103e-04 1.862500258683704724e+00 1.722197880129890279e+00 5.742248292026904538e-02 1.778620021003902707e+00 4.394638318861986831e-02 1.616225599247031575e+00 7.119328554150612665e-02 1.791447747990549288e+00 1.901465741975930213e+00
-1.413514270313718790e-01 1.780935451712792328e-02 -4.933430621821398586e-05 1.864895260023775370e+00 1.721313604838284217e+00 5.932229905033631345e-02 1.777668091474834400e+00 4.437460067587699342e-02 1.609848066684574253e+00 7.438555465680520007e-02 1.792099918735194475e+00 1.906476447337791091e+00
-1.457741622164449580e-01 1.754089114964058754e-02 -6.151329181575755818e-04 1.867179423205389543e+00 1.720638958960564624e+00 6.112948467943014191e-02 1.776693949619106316e+00 4.465815056180799658e-02 1.603739805932194118e+00 7.749826815843277594e-02 1.792759478452029986e+00 1.911343321073016854e+00
-1.503717287431780292e-01 1.718043695556883271e-02 -1.262252773803646975e-03 1.869555275790720561e+00 1.720111137484570563e+00 6.300125632578940094e-02 1.775612996800361998e+00 4.482536552327772567e-02 1.597375363989667729e+00 8.080093527613881055e-02 1.793480539160626330e+00 1.916483111582389709e+00
-1.547484649393614242e-01 1.675618838151353429e-02 -1.939160932048300621e-03 1.871821114035254086e+00 1.719786158580887792e+00 6.477489498421458436e-02 1.774512765432689765e+00 4.485479805392713487e-02 1.591311069856570226e+00 8.401206459546103900e-02 1.794200334465274604e+00 1.921450675215306658e+00
-1.593073871236596051e-01 1.623428022863042386e-02 -2.706711201508244652e-03 1.874188172081025394e+00 1.719627178220412445e+00 6.661294123759099739e-02 1.773292902797240167e+00 4.475491195054906446e-02 1.584997839051378810e+00 8.742379136943757845e-02 1.794981108724451158e+00 1.926693410036581788e+00
-1.636387339703234967e-01 1.565979827821301074e-02 -3.500288960138228309e-03 1.876447075096688177e+00 1.719657252570809591e+00 6.834871825186948635e-02 1.772056979650593389e+00 4.452896315220800788e-02 1.579012554895777631e+00 9.073215798952534439e-02 1.795751464765253047e+00 1.931736494936534321e+00
-1.681577993270816362e-01 1.498389486285998939e-02 -4.394066759604948677e-03 1.878816947137675664e+00 1.719869437106654741e+00 7.014855781594246664e-02 1.770687829384314682e+00 4.416303614863469756e-02 1.572789053351764998e+00 9.425050157157464914e-02 1.796581111005893794e+00 1.937053934358381246e+00
-1.724432819848808196e-01 1.426877107631820477e-02 -5.309309228298598679e-03 1.881080703311797109e+00 1.720250774220243528e+00 7.184379184552466824e-02 1.769306497414984580e+00 4.368695571352202572e-02 1.566916550334290559e+00 9.765356002458255857e-02 1.797390978113959425e+00 1.942146446172526408e+00
-1.769194709220277828e-01 1.345062502984941191e-02 -6.334374385764804903e-03 1.883464756172386512e+00 1.720826790817099106e+00 7.360304837820959289e-02 1.767777894809363648e+00 4.306292349079865467e-02 1.560818672759430203e+00 1.012742990643207969e-01 1.798257139786296310e+00 1.947510132729727950e+00
-1.811564806350414447e-01 1.260816062980560023e-02 -7.375599813597658906e-03 1.885744343304346815e+00 1.721546964419960357e+00 7.525737006387590855e-02 1.766241743759904503e+00 4.234800422843268408e-02 1.555088671246329213e+00 1.047678726948334804e-01 1.799094349845844709e+00 1.952627037627435946e+00
-1.855841311939690763e-01 1.166330899594707204e-02 -8.536094658742915398e-03 1.888152474953480375e+00 1.722470200851938138e+00 7.697610685324814128e-02 1.764544327900740450e+00 4.148026142689070772e-02 1.549147558234186262e+00 1.084848074637915771e-01 1.799983707849267534e+00 1.958009908695351742e+00
-1.897672827548339547e-01 1.070985018383679641e-02 -9.706861837885947045e-03 1.890456852775442620e+00 1.723508629447422891e+00 7.859125071733569223e-02 1.762844941887365291e+00 4.054353819878147441e-02 1.543585104570680100e+00 1.120629675736289077e-01 1.800835461294002071e+00 1.963127985316353463e+00
-1.941378067079571057e-01 9.656873197329052250e-03 -1.100605410924642390e-02 1.892896537999649853e+00 1.724754042944898424e+00 8.027172897124106032e-02 1.760970754924908954e+00 3.945255904714609768e-02 1.537826651670877842e+00 1.158679929074411946e-01 1.801734003934669648e+00 1.968505152591170981e+00
-1.982596478564071785e-01 8.611035963867624127e-03 -1.230940372779587740e-02 1.895232584530925246e+00 1.726083255217574219e+00 8.185167322350511698e-02 1.759100814699578574e+00 3.831599388812988172e-02 1.532450789489140597e+00 1.195237277499466289e-01 1.802587194054471542e+00 1.973604420139193349e+00
-2.025624764526970378e-01 7.470708203624123155e-03 -1.374985891656284841e-02 1.897709107705721099e+00 1.727618840249952603e+00 8.349835564515729891e-02 1.757043245711650492e+00 3.702704749134583251e-02 1.526894538772141097e+00 1.234076018018088056e-01 1.803480882821560938e+00 1.978954443980867284e+00
-2.066142605621789086e-01 6.352639252807666496e-03 -1.518848590233874522e-02 1.900082027585999533e+00 1.729206182055841312e+00 8.504899287024347831e-02 1.754996328786172732e+00 3.571605860878223487e-02 1.521718435567449568e+00 1.271333833140497471e-01 1.804322599206612088e+00 1.984018536588689097e+00
-2.108384263714878082e-01 5.147090091626707956e-03 -1.677247165243346896e-02 1.902599405537592103e+00 1.730995191135149991e+00 8.666833663113000796e-02 1.752749684706466970e+00 3.425761995249401032e-02 1.516377717933334424e+00 1.310868152514720886e-01 1.805197578302332406e+00 1.989323896212012333e+00
-2.148117765322273554e-01 3.977736703726922167e-03 -1.834903088656405362e-02 1.905013767307773387e+00 1.732804926880365803e+00 8.819729393602102063e-02 1.750519817330133066e+00 3.279967329841890905e-02 1.511409163859915861e+00 1.348756710183642848e-01 1.806015141883971609e+00 1.994340052214670145e+00
-2.189474763389467615e-01 2.729794543713973815e-03 -2.007865894585770042e-02 1.907575873480911177e+00 1.734807978018410246e+00 8.979744210184087416e-02 1.748078866344418003e+00 3.120183747148879902e-02 1.506291718331869145e+00 1.388902156376607966e-01 1.806857869447989984e+00 1.999586977278631217e+00
-2.228352492223001913e-01 1.530654283454597466e-03 -2.179578135296810978e-02 1.910036469156736416e+00 1.736802704092843763e+00 9.131360734919057032e-02 1.745660232807928702e+00 2.962532436256569077e-02 1.501534307580309813e+00 1.427360263816784547e-01 1.807638796385178992e+00 2.004545345547510848e+00
-2.268747332764538549e-01 2.635222493309378154e-04 -2.367315166986017419e-02 1.912647826324671563e+00 1.738979150255040684e+00 9.290396517155284639e-02 1.743019829273871890e+00 2.791878179083626468e-02 1.496643401896867287e+00 1.468045568019537839e-01 1.808436024828835365e+00 2.009723263725483378e+00
-2.306714049418756851e-01 -9.435540495333544003e-04 -2.553345637510387109e-02 1.915159975680069904e+00 1.741120642448960920e+00 9.441709151860502858e-02 1.740406692173511738e+00 2.625240783874705983e-02 1.492097656146839535e+00 1.507022162123369813e-01 1.809167982885868442e+00 2.014616187833702554e+00
-2.346089587235724305e-01 -2.206502634606438955e-03 -2.756063814785551791e-02 1.917825786337134186e+00 1.743429354967747313e+00 9.600786482539436228e-02 1.737561773402643173e+00 2.446789757618658689e-02 1.487433278508529577e+00 1.548188781078385645e-01 1.809906728857156200e+00 2.019716973937974558e+00
-2.383104133008044356e-01 -3.399461044384157696e-03 -2.956665095329175791e-02 1.920395227133381066e+00 1.745679041880907834e+00 9.752812663477589128e-02 1.734748593780357284e+00 2.274039485203453032e-02 1.483097624139582571e+00 1.587640715111092171e-01 1.810577503435485180e+00 2.024538379302976754e+00
-2.421418773174968397e-01 -4.634833906578741426e-03 -3.174558001037817989e-02 1.923121052406333353e+00 1.748078768730606747e+00 9.912978406029170075e-02 1.731694427826972360e+00 2.090849612340398359e-02 1.478657628830358339e+00 1.629238762082341752e-01 1.811245048176611139e+00 2.029555646243771605e+00
-2.457450430107446793e-01 -5.791539333515621432e-03 -3.389965723474570869e-02 1.925753598207369910e+00 1.750397874438585744e+00 1.006673792935727646e-01 1.728676102947598991e+00 1.914850730835534684e-02 1.474529129561842344e+00 1.669128209798191320e-01 1.811842636710617960e+00 2.034300627503373704e+00
-2.494674702549904699e-01 -6.976092943858911745e-03 -3.623209777596311104e-02 1.928545023537032721e+00 1.752847514126175010e+00 1.022903258264792614e-01 1.725408483478823474e+00 1.729941102852945722e-02 1.470309877338589200e+00 1.711114427207371669e-01 1.812426646913197548e+00 2.039229373734937845e+00
-2.529700357980436687e-01 -8.074506120213128038e-03 -3.853635009445384452e-02 1.931246264074398145e+00 1.755197338507216376e+00 1.038552071592430265e-01 1.722180627514493745e+00 1.553530241006537312e-02 1.466384774144874559e+00 1.751406229756352628e-01 1.812939343969414807e+00 2.043893847914379336e+00
-2.565812819840345704e-01 -9.185330910536880500e-03 -4.102375488505800166e-02 1.934108547376864440e+00 1.757656238992276743e+00 1.055094830772616288e-01 1.718696177378508994e+00 1.369861488373103411e-02 1.462381729362190574e+00 1.793740363527044357e-01 1.813427956158572218e+00 2.048730021569649118e+00
-2.599800475747089945e-01 -1.020362317125812768e-02 -4.347984352026074140e-02 1.936882497688967586e+00 1.759998702290787698e+00 1.071110343075322990e-01 1.715255807923366183e+00 1.195809805743421050e-02 1.458655795529496979e+00 1.834392210864185246e-01 1.813844301947079574e+00 2.053310492449714975e+00
-2.634762424757337018e-01 -1.121828584297831881e-02 -4.612325091375958641e-02 1.939818512314372079e+00 1.762427405067338082e+00 1.088059397397061617e-01 1.711553014642438031e+00 1.016246196575769541e-02 1.454864095374809985e+00 1.877021942854073810e-01 1.814225897933925635e+00 2.058050694923286628e+00
-2.667698511747860768e-01 -1.213538976771960133e-02 -4.873271730574758182e-02 1.942669674435998806e+00 1.764725091158618309e+00 1.104531713731311260e-01 1.707897585155957243e+00 8.472512311689887193e-03 1.451332581794565701e+00 1.918000707068731325e-01 1.814535265421454824e+00 2.062544443262093630e+00
-2.701514624789946861e-01 -1.303271563256485667e-02 -5.153310379781265993e-02 1.945684622521113294e+00 1.767085020535695383e+00 1.121977675985919021e-01 1.703974515046969174e+00 6.745488002480537482e-03 1.447746526050375238e+00 1.960898040349554616e-01 1.814799686218432351e+00 2.067186289630448925e+00
-2.733388970289422626e-01 -1.382841086002197656e-02 -5.429627725911375519e-02 1.948616611023756162e+00 1.769301119716376158e+00 1.138985927899522077e-01 1.700103479535415518e+00 5.132364708528431609e-03 1.444405538896925689e+00 2.002162855938139363e-01 1.814992405559160638e+00 2.071589624696279053e+00
-2.766050594417449604e-01 -1.458827681293953411e-02 -5.725332819716689309e-02 1.951713373069909663e+00 1.771555037634033658e+00 1.157006345645125583e-01 1.695960927811246854e+00 3.500350460414869587e-03 1.441020432803740814e+00 2.045282376846315475e-01 1.815130367842534342e+00 2.076129739952956577e+00
-2.796844480173072967e-01 -1.524360945843540767e-02 -6.016930660453710666e-02 1.954727832728408554e+00 1.773654281640819841e+00 1.174618669723644371e-01 1.691876309347673857e+00 1.989027287171408163e-03 1.437866574901921046e+00 2.086777854228278883e-01 1.815197779654487142e+00 2.080438343854294825e+00
-2.828336304678634727e-01 -1.584758901537635170e-02 -6.328148591190128902e-02 1.957907392740027674e+00 1.775767011728617950e+00 1.193279702240400419e-01 1.687517706794106065e+00 4.766628999420262120e-04 1.434678171007496728e+00 2.130060100577730042e-01 1.815201393510859518e+00 2.084872824161967397e+00
-2.858027476171696724e-01 -1.634564113943849650e-02 -6.634823975621144398e-02 1.961004117242408196e+00 1.777716622701858817e+00 1.211552996966520079e-01 1.683224098948595149e+00 -9.099144708900073824e-04 1.431708356616682165e+00 2.171720105502097375e-01 1.815136412032512858e+00 2.089082062566920417e+00
-2.888332806590163115e-01 -1.677788617969610402e-02 -6.961300482551927016e-02 1.964265658910588463e+00 1.779656443689201728e+00 1.230910023108184870e-01 1.678655326708361484e+00 -2.280356600537745710e-03 1.428712701382885975e+00 2.215097741641096629e-01 1.814999278215075451e+00 2.093406780255858024e+00
-2.916895473036046349e-01 -1.710442118340164616e-02 -7.282693598302612814e-02 1.967442359516903716e+00 1.781426836420235471e+00 1.249888372023225808e-01 1.674160538585807378e+00 -3.521579140208176608e-03 1.425924249877646321e+00 2.256841283249368946e-01 1.814796643027417611e+00 2.097511328027100497e+00
-2.945994847390338567e-01 -1.735211211733401343e-02 -7.624011838273642150e-02 1.970783061337674447e+00 1.783165616936396303e+00 1.269984205994014737e-01 1.669390724086593059e+00 -4.730665997534980183e-03 1.423117662584433063e+00 2.300231780812500570e-01 1.814514640302516080e+00 2.101721513965385313e+00
-2.973402828264301023e-01 -1.749636816739028392e-02 -7.959599396652930481e-02 1.974035531715050196e+00 1.784731549494819047e+00 1.289700701252645965e-01 1.664705651962753219e+00 -5.809009345238873474e-03 1.420507855438005285e+00 2.341965782726698475e-01 1.814171307141853262e+00 2.105715547169742852e+00
-3.001276148120988752e-01 -1.755064895516111542e-02 -8.315178656877622587e-02 1.977450475811638464e+00 1.786246216566824918e+00 1.310566111068866835e-01 1.659747172492791911e+00 -6.840787329412387208e-03 1.417886760130335988e+00 2.385274452741520113e-01 1.813742698841791956e+00 2.109805894455596853e+00
-3.027504074558915459e-01 -1.750609629545173476e-02 -8.664264775104124627e-02 1.980772436138222181e+00 1.787587723531432582e+00 1.331041208664266451e-01 1.654886147362363058e+00 -7.742472920263939080e-03 1.415452839126824403e+00 2.426893030793494943e-01 1.813258324450766290e+00 2.113683166881833220e+00
-3.054133594227710358e-01 -1.736275416811113373e-02 -9.033358828388586559e-02 1.984254833166134713e+00 1.788861043852113530e+00 1.352695724239350028e-01 1.649754677268324032e+00 -8.585121106018176254e-03 1.413013512177484499e+00 2.470013281123557003e-01 1.812684310546059274e+00 2.117647982806509788e+00
-3.079161189016297873e-01 -1.712775445987116743e-02 -9.395092013678624232e-02 1.987638315222944430e+00 1.789964390280309514e+00 1.373939782677415233e-01 1.644735096558400222e+00 -9.300787310697543678e-03 1.410752195633522943e+00 2.511401858867686188e-01 1.812061630614302254e+00 2.121402225717124779e+00
-3.104534358150047857e-01 -1.678781454121638927e-02 -9.776807747284520234e-02 1.991179734280885016e+00 1.790985899506083001e+00 1.396393115334114698e-01 1.639449249328080338e+00 -9.947262486118128508e-03 1.408490388160027695e+00 2.554219313300826188e-01 1.811346656645294928e+00 2.125235856903449072e+00
-3.128350479727551314e-01 -1.636606817027698446e-02 -1.015023942938285684e-01 1.994615639245015393e+00 1.791844432283637767e+00 1.418409520705658233e-01 1.634290713391363337e+00 -1.047251632556245836e-02 1.406397524449383374e+00 2.595261748179794603e-01 1.810591631336244456e+00 2.128861396897922642e+00
-3.152462142314691462e-01 -1.583622683926693905e-02 -1.054356330444875395e-01 1.998206256021350713e+00 1.792611091156646408e+00 1.441662660884475700e-01 1.628871535706644336e+00 -1.092095345900427963e-02 1.404308238839136358e+00 2.637659016275175072e-01 1.809743568265667957e+00 2.132558607240946813e+00
-3.175064023168661653e-01 -1.523706933308634041e-02 -1.092764218618457739e-01 2.001684346957218974e+00 1.793225589763811190e+00 1.464447369188748294e-01 1.623595561058523984e+00 -1.125658585537595707e-02 1.402378692688709405e+00 2.678239734251663950e-01 1.808865544548694304e+00 2.136050471735864598e+00
-3.197917747655475984e-01 -1.452989088170291918e-02 -1.133146415847308269e-01 2.005313329179385651e+00 1.793742095188903374e+00 1.488494538724157434e-01 1.618065842705058932e+00 -1.151050512255720991e-02 1.400455966632913940e+00 2.720100816475867767e-01 1.807895779939399761e+00 2.139606699845884474e+00
-3.219318402960736902e-01 -1.376811698997050006e-02 -1.172516179074347131e-01 2.008823487146125686e+00 1.794120933674973717e+00 1.512043881398145717e-01 1.612694116774485265e+00 -1.166257313798586825e-02 1.398683217940701384e+00 2.760117154995056499e-01 1.806907235577025927e+00 2.142961490950961778e+00
-3.240933522602795769e-01 -1.290168536002411943e-02 -1.213840907374292427e-01 2.012480220653007024e+00 1.794399702629515314e+00 1.536880149541222929e-01 1.607076665058354337e+00 -1.173085060208873230e-02 1.396919746136148444e+00 2.801339460305212192e-01 1.805830312456640607e+00 2.146373809128761412e+00
-3.261160491611130863e-01 -1.199711783760439542e-02 -1.254077316767126526e-01 2.016012815851488504e+00 1.794558412674821524e+00 1.561192903730589110e-01 1.601630196983435672e+00 -1.171035170174091443e-02 1.395295975785582732e+00 2.840705154502319862e-01 1.804746535988567269e+00 2.149589944999674263e+00
-3.281570191528637714e-01 -1.099449527527565987e-02 -1.296244992172774779e-01 2.019687142728206375e+00 1.794618948612822118e+00 1.586815381398570812e-01 1.595947096224908268e+00 -1.160679310219203848e-02 1.393683295150598633e+00 2.881202593237922049e-01 1.803579818888688902e+00 2.152857145408424877e+00
-3.300664876083259092e-01 -9.971250454486074721e-03 -1.337265655238692730e-01 2.023233534369560882e+00 1.794579334925910707e+00 1.611896538637395682e-01 1.590445285409767706e+00 -1.142910378546696699e-02 1.392199556996786880e+00 2.919851473106000461e-01 1.802418498438085548e+00 2.155934833787386040e+00
-3.319914208804450317e-01 -8.859690521320615075e-03 -1.380188307325265762e-01 2.026916241731650636e+00 1.794447202296667099e+00 1.638307839592039739e-01 1.584716843929846686e+00 -1.117175409006424328e-02 1.390728106026152711e+00 2.959558143429912302e-01 1.801181721438760874e+00 2.159057419871213135e+00
-3.337929438358112066e-01 -7.745322671454800412e-03 -1.421928616593416961e-01 2.030469101628844975e+00 1.794236197707990144e+00 1.664171148052630278e-01 1.579176572200421846e+00 -1.085582252068304290e-02 1.389374523911298231e+00 2.997447491305876843e-01 1.799962426250631076e+00 2.161998702066823430e+00
-3.356074358407938885e-01 -6.555217230905674257e-03 -1.465536750048310466e-01 2.034152296344870603e+00 1.793941720796162764e+00 1.691382277982977078e-01 1.573420487061270245e+00 -1.046608418325726229e-02 1.388033944814236476e+00 3.036321312011366347e-01 1.798677060099602931e+00 2.164978981516340273e+00
-3.373071651115268632e-01 -5.379717033379526579e-03 -1.507952446773098421e-01 2.037705715823070474e+00 1.793590054348015661e+00 1.718051433149828111e-01 1.567855773262597507e+00 -1.003355524055981295e-02 1.386800064048870018e+00 3.073431551499020142e-01 1.797420697049967098e+00 2.167787516437500450e+00
-3.390175825582443792e-01 -4.143496039462894742e-03 -1.552197515709338171e-01 2.041382966108286734e+00 1.793166866653732150e+00 1.746083069736099058e-01 1.562086719073829455e+00 -9.535236734485471460e-03 1.385579517759182311e+00 3.111453765001712113e-01 1.796109345244259359e+00 2.170629405962184677e+00
-3.406221912819194508e-01 -2.938394543086322429e-03 -1.595265158273689865e-01 2.044932441702467685e+00 1.792707716672683471e+00 1.773591971848909876e-01 1.556508658284886604e+00 -9.009548817507175705e-03 1.384454717746111285e+00 3.147785704186084610e-01 1.794837705811953565e+00 2.173310080020409707e+00
-3.422353807244248869e-01 -1.689559556382836487e-03 -1.640119079948675063e-01 2.048598781051976570e+00 1.792191317800395867e+00 1.802474718629929196e-01 1.550738276834334295e+00 -8.427883849313949627e-03 1.383343266868669152e+00 3.184958016045976170e-01 1.793523604729344134e+00 2.176018648744808548e+00
-3.437517397691579601e-01 -4.869963766566947228e-04 -1.683833244171214216e-01 2.052140978159928686e+00 1.791659010379804684e+00 1.830866224800084263e-01 1.545155228086908084e+00 -7.833412878749239708e-03 1.382316987795858765e+00 3.220530126463644893e-01 1.792258877999644673e+00 2.178577193265297751e+00
-3.452746822039695629e-01 7.409463939762696077e-04 -1.729286739909486337e-01 2.055792559230842365e+00 1.791085356537763351e+00 1.860638730409003849e-01 1.539392255631891970e+00 -7.194125011821441394e-03 1.381303814002928787e+00 3.256873461077183229e-01 1.790965301204125115e+00 2.181158466071162483e+00
-3.467094900940780322e-01 1.909040814003655582e-03 -1.773657004815860083e-01 2.059324859084972648e+00 1.790514142683442111e+00 1.889962126672155573e-01 1.533810447974351066e+00 -6.555417464364505196e-03 1.380365905106695434e+00 3.291716621587978397e-01 1.789729713090962404e+00 2.183601061831718315e+00
-3.481489398248338585e-01 3.083405759330181198e-03 -1.819716113801561064e-01 2.062958694823157302e+00 1.789918422041558044e+00 1.920669704655828258e-01 1.528061423209981839e+00 -5.883987121457870048e-03 1.379440689223953243e+00 3.327263005581784783e-01 1.788479638802172644e+00 2.186061431172222846e+00
-3.495084449169124641e-01 4.186078187401531120e-03 -1.864762227416646434e-01 2.066478999620423807e+00 1.789341409283245143e+00 1.950978903870767001e-01 1.522485543177941381e+00 -5.225147529954472965e-03 1.378581609022423882e+00 3.361413812425904646e-01 1.787295139183351145e+00 2.188394202813766842e+00
-3.508706835532638957e-01 5.275843423692737691e-03 -1.911443647690004299e-01 2.070092773038713307e+00 1.788756876685873465e+00 1.982672249050251856e-01 1.516755238096614278e+00 -4.546110460970749327e-03 1.377734621849128871e+00 3.396201518995395352e-01 1.786110869475447727e+00 2.190739997138889450e+00