-2.648649278710356884e+04
-2.648649333908648987e+04
-2.648649499789244874e+04
-2.648649777209303647e+04
-2.648650167611027791e+04
-2.648650672980849049e+04
-2.648651295876637232e+04
-2.648652039400489593e+04
-2.648652907239549677e+04
-2.648653903502735557e+04
-2.648655032911222952e+04
-2.648656213517929064e+04
-2.648657523582793874e+04
-2.648658969486887145e+04
-2.648660558223534099e+04
-2.648662172947052750e+04
-2.648663931986145326e+04
-2.648665844225329420e+04
-2.648667776709783357e+04
-2.648669869265202578e+04
-2.648672132626478560e+04
-2.648674383184797989e+04
-2.648676813637576561e+04
-2.648679277818865012e+04
-2.648681936411885908e+04
-2.648684613998452551e+04
-2.648687499833740003e+04
-2.648690387220076082e+04
-2.648693494202280272e+04
-2.648696580680706757e+04
-2.648699894210919956e+04
-2.648703161685866144e+04
-2.648706660185461078e+04
-2.648710085704124867e+04
-2.648713743825697748e+04
-2.648717302965861745e+04
-2.648721094423215618e+04
-2.648724761973533168e+04
-2.648728658276348870e+04
-2.648732405882557578e+04
-2.648736373438382361e+04
-2.648740167045435373e+04
-2.648744166248099282e+04
-2.648747968195441717e+04
-2.648751957955755279e+04
-2.648755732446811453e+04
-2.648759676736902838e+04
-2.648763394900393905e+04
-2.648767266005468264e+04
-2.648770906453247517e+04
-2.648774684114429692e+04
-2.648778231295190562e+04
-2.648781901063235637e+04
-2.648785344038001858e+04
-2.648788896280080371e+04
-2.648792228354851977e+04
-2.648795658254548107e+04
-2.648798877170779815e+04
-2.648785917327437346e+04
-2.648794338856178729e+04
-2.648801612894468053e+04
-2.648807440634099476e+04
-2.648812614007977027e+04
-2.648816920726490207e+04
-2.648820904309819889e+04
-2.648824375978990429e+04
-2.648827725645921601e+04
-2.648830765443218843e+04
-2.648833796015856933e+04
-2.648836625088197616e+04
-2.648839504147850676e+04
-2.648842236864681036e+04
-2.648845049025146727e+04
-2.648847741618791406e+04
-2.648850527533877539e+04
-2.648853205651065946e+04
-2.648855982518366363e+04
-2.648858655002798696e+04
-2.648861426019652208e+04
-2.648864090639994174e+04
-2.648866849071582328e+04
-2.648869495773228118e+04
-2.648872227592083073e+04
-2.648874840293105080e+04
-2.648877525988664274e+04
-2.648880084484609324e+04
-2.648882701321761488e+04
-2.648885183680254704e+04
-2.648887708257209670e+04
-2.648890093117314609e+04
-2.648892503964290881e+04
-2.648894772699815076e+04
-2.648897052306286787e+04
-2.648899190821733646e+04
-2.648901327255509386e+04
-2.648903327033715323e+04
-2.648905314716460998e+04
-2.648907173294796303e+04
-2.648909013097276329e+04
-2.648910827511535535e+04
-2.648912477841150030e+04
-2.648914105272384768e+04
-2.648915706090886306e+04
-2.648917172457939887e+04
-2.648918617572902804e+04
-2.648920039721457943e+04
-2.648921353800001816e+04
-2.648922651116333509e+04
-2.648923930663631108e+04
-2.648925123202528994e+04
-2.648926302870442305e+04
-2.648927468306801893e+04
-2.648928617810895958e+04
-2.648929676646659573e+04
-2.648930722625043927e+04
-2.648931752848037286e+04
-2.648932763982244433e+04
-2.648933695482337134e+04
-2.648934606723553952e+04
-2.648935493460920407e+04
-2.648936351313401974e+04
-2.648937175763910636e+04
-2.648937913859092077e+04
-2.648938617246153808e+04
-2.648939282033867130e+04
-2.648939904616724380e+04
-2.648940481851810546e+04
-2.648941011113226705e+04
-2.648941464019499472e+04
-2.648941872312708801e+04
-2.648942235244541371e+04
-2.648942552624516611e+04
-2.648942824915229721e+04
-2.648943053150711785e+04
-2.648943238854800802e+04
-2.648943384041139507e+04
-2.648943491049906515e+04
-2.648943562575029136e+04
-2.648943601419279366e+04
-2.648943610521487426e+04
-2.648943592725242343e+04
-2.648943550806105486e+04
-2.648943487267523960e+04
-2.648943404340831694e+04
-2.648943303876402570e+04
-2.648943187316439798e+04
-2.648943055654158889e+04
-2.648942909433787645e+04
-2.648942748777777524e+04
-2.648942573386802542e+04
-2.648942382621396246e+04
-2.648942175597187816e+04
-2.648941951212116328e+04
-2.648941708268881121e+04
-2.648941445583786845e+04
-2.648941162068378617e+04
-2.648940856824679940e+04
-2.648940529267646707e+04
-2.648940179138770691e+04
-2.648939806601319651e+04
-2.648939412281156183e+04
-2.648938997239523451e+04
-2.648938563013865496e+04
-2.648938111590612971e+04
-2.648937645269127825e+04
-2.648937166729730961e+04
-2.648936678788801146e+04
-2.648936184439590579e+04
-2.648935686634534068e+04
-2.648935145563377591e+04
-2.648934601362911417e+04
-2.648934056495766708e+04
-2.648933513043613857e+04
-2.648932972611924561e+04
-2.648932436302760107e+04
-2.648931904673953250e+04
-2.648931377711899040e+04
-2.648930809062004482e+04
-2.648930237146744184e+04
-2.648929660292618064e+04
-2.648929076526800054e+04
-2.648928483645167944e+04
-2.648927879361966552e+04
-2.648927261459467263e+04
-2.648926576616963939e+04
-2.648925866005280113e+04
-2.648925128182212211e+04
-2.648924362317813211e+04
-2.648923568248814991e+04
-2.648922746601079416e+04
-2.648921826026357303e+04
-2.648920871056446049e+04
-2.648919884929500404e+04
-2.648918871713622502e+04
-2.648917836211620670e+04
-2.648916684680278559e+04
-2.648915511243772198e+04
-2.648914323045089623e+04
-2.648913127540151254e+04
-2.648911822672660492e+04
-2.648910516131670011e+04
-2.648909216434342670e+04
-2.648907834014407854e+04
-2.648906467309047730e+04
-2.648905124672156307e+04
-2.648903707231170483e+04
-2.648902321749955445e+04
-2.648900975521161672e+04
-2.648899565549700856e+04
-2.648898200531446491e+04
-2.648896886139971321e+04
-2.648895521135322269e+04
-2.648894209696282996e+04
-2.648892955741291371e+04
-2.648891664806029803e+04
-2.648890431490873016e+04
-2.648889258258451810e+04
-2.648888060767082061e+04
-2.648886921167931359e+04
-2.648885840739935156e+04
-2.648884820408280211e+04
-2.648883767586232716e+04
-2.648882768561090779e+04
-2.648881823659392103e+04
-2.648880933030798042e+04
-2.648880024932495508e+04
-2.648879163787436119e+04
-2.648878349595619511e+04
-2.648877582370651362e+04
-2.648876862180560420e+04
-2.648876125867724113e+04
-2.648875427419528933e+04
-2.648874767026453628e+04
-2.648874145042247255e+04
-2.648873561983925174e+04
-2.648873018531772323e+04
-2.648872467201923791e+04
-2.648871945831808989e+04
-2.648871455333008998e+04
-2.648870996848402501e+04
-2.648870571752163596e+04
-2.648870181622552991e+04
-2.648869828323550610e+04
-2.648869513855193145e+04
-2.648869240530447860e+04
-2.648868980498463497e+04
-2.648868753024900070e+04
-2.648868561334306651e+04
-2.648868409249882097e+04
-2.648868301111842447e+04
-2.648868241859054251e+04
-2.648868236920187701e+04
-2.648868292281748654e+04
-2.648868414297593699e+04
-2.648868609675329935e+04
-2.648868885313042847e+04
-2.648869248095212606e+04
-2.648869704743050897e+04
-2.648870261555993420e+04
-2.648870924153190572e+04
-2.648871697228605990e+04
-2.648872584224479942e+04
-2.648873587127243809e+04
-2.648874706113771026e+04
-2.648875879250952494e+04
-2.648877172009376955e+04
-2.648878578225666570e+04
-2.648880089287418377e+04
-2.648881596403519507e+04
-2.648883196759427301e+04
-2.648884875810657832e+04
-2.648886517459840252e+04
-2.648888216987636770e+04
-2.648889956502561836e+04
-2.648891607022655808e+04
-2.648893276590718597e+04
-2.648894947669012981e+04
-2.648896498459385475e+04
-2.648898035725699810e+04
-2.648899545807841787e+04
-2.648900928350227332e+04
-2.648902278102895434e+04
-2.648903587337813224e+04
-2.648904782067227643e+04
-2.648905940741558516e+04
-2.648907061809756487e+04
-2.648908145666387281e+04
-2.648909131004202573e+04
-2.648910097675008728e+04
-2.648911050223106940e+04
-2.648911994199618857e+04
-2.648912887753436371e+04
-2.648913793008149150e+04
-2.648914716018289982e+04
-2.648915662579883428e+04
-2.648916637917515254e+04
-2.648917586438328362e+04
-2.648918576864672650e+04
-2.648919610802019452e+04
-2.648920688481666366e+04
-2.648921808529437476e+04
-2.648922892399673947e+04
-2.648924016937323540e+04
-2.648925176468812788e+04
-2.648926363919182040e+04
-2.648927499803978571e+04
-2.648928652627862175e+04
-2.648929812798818602e+04
-2.648930970085368972e+04
-2.648932044023449998e+04
-2.648933102750367834e+04
-2.648934136197910266e+04
-2.648935134501949869e+04
-2.648936033810974914e+04
-2.648936889622603485e+04
-2.648937694208801622e+04
-2.648938440562638061e+04
-2.648939122534341004e+04
-2.648939700735430597e+04
-2.648940215738082043e+04
-2.648940664249716428e+04
-2.648941043875732794e+04
-2.648941352983447723e+04
-2.648941590742914195e+04
-2.648941757072498149e+04
-2.648941852530032702e+04
-2.648941878285607527e+04
-2.648941836094357132e+04
-2.648941728133191282e+04
-2.648941557014403952e+04
-2.648941325676823908e+04
-2.648941037385817617e+04
-2.648940695678864722e+04
-2.648940304338347778e+04
-2.648939867350734130e+04
-2.648939388961000077e+04
-2.648938873590995354e+04
-2.648938325880260891e+04
-2.648937750686028812e+04
-2.648937153042405043e+04
-2.648936538187581027e+04
-2.648935911536622007e+04
-2.648935278654255671e+04
-2.648934645241267935e+04
-2.648934017066471279e+04
-2.648933399885073959e+04
-2.648932745560137846e+04
-2.648932108514430001e+04
-2.648931494666427170e+04
-2.648930909540039647e+04
-2.648930358291825542e+04
-2.648929845452479276e+04
-2.648929374967652257e+04
-2.648928911557784886e+04
-2.648928492624924911e+04
-2.648928119488823359e+04
-2.648927792476017930e+04
-2.648927510756560878e+04
-2.648927272412049570e+04
-2.648927074367597743e+04
-2.648926912500680555e+04
-2.648926781709164061e+04
-2.648926675952120786e+04
-2.648926588467521651e+04
-2.648926511894687428e+04
-2.648926438396739832e+04
-2.648926359919108654e+04
-2.648926268339196395e+04
-2.648926155643249876e+04
-2.648926014157659301e+04
-2.648925836753042313e+04
-2.648925595714604060e+04
-2.648925293981174036e+04
-2.648924926396195224e+04
-2.648924489082045329e+04
-2.648923979603304906e+04
-2.648923396993970528e+04
-2.648922741893509738e+04
-2.648922016546861414e+04
-2.648921224804436497e+04
-2.648920303304527624e+04
-2.648919311898573505e+04
-2.648918259593542462e+04
-2.648917156920239722e+04
-2.648916015742828677e+04
-2.648914731637624209e+04
-2.648913418293787618e+04
-2.648912092051755099e+04
-2.648910667875951913e+04
-2.648909252870385171e+04
-2.648907865838121143e+04
-2.648906408736543744e+04
-2.648905005459083259e+04
-2.648903674795201005e+04
-2.648902321396207117e+04
-2.648901066339154931e+04
-2.648899925284195342e+04
-2.648898823631319465e+04
-2.648897855695183898e+04
-2.648897030782082584e+04
-2.648896355232266433e+04
-2.648895779289721031e+04
-2.648895352982575787e+04
-2.648895073725749171e+04
-2.648894936008935474e+04
-2.648894931478239960e+04
-2.648895049330743495e+04
-2.648895276559404010e+04
-2.648895598347624400e+04
-2.648895998395784045e+04
-2.648896459424655404e+04
-2.648896963529147251e+04
-2.648897492559266539e+04
-2.648898028569105736e+04
-2.648898554184196473e+04
-2.648899052928045785e+04
-2.648899509521461368e+04
-2.648899910154665849e+04
-2.648900242650565269e+04
-2.648900496709650906e+04
-2.648900663950816306e+04
-2.648900738074626133e+04
-2.648900714904132474e+04
-2.648900592507327747e+04
-2.648900371183537209e+04
-2.648900053558659056e+04
-2.648899644612376869e+04
-2.648899151678158159e+04
-2.648898584443255459e+04
-2.648897954948706683e+04
-2.648897277358037172e+04
-2.648896567943654009e+04
-2.648895844746705188e+04
-2.648895127277752181e+04
-2.648894436203842270e+04
-2.648893792845093412e+04
-2.648893218698499186e+04
-2.648892734880094213e+04
-2.648892361607936255e+04
-2.648892082283080890e+04
-2.648891942457384721e+04
-2.648891958185564727e+04
-2.648892142637930010e+04
-2.648892505651396641e+04
-2.648893053457371207e+04
-2.648893788532089093e+04
-2.648894709446953129e+04
-2.648895811004588904e+04
-2.648897084347691634e+04
-2.648898517244742834e+04
-2.648900008224493649e+04
-2.648901632104642704e+04
-2.648903370163758882e+04
-2.648905096658036564e+04
-2.648906905466750322e+04
-2.648908776058911462e+04
-2.648910560377380170e+04
-2.648912379825745302e+04
-2.648914215981899906e+04
-2.648915924503058704e+04
-2.648917632153453087e+04
-2.648919324538261208e+04
-2.648920877342276071e+04
-2.648922405792101927e+04
-2.648923899424962292e+04
-2.648925259912521506e+04
-2.648926582140874962e+04
-2.648927858626892339e+04
-2.648929016117527499e+04
-2.648930127063090913e+04
-2.648931185817220103e+04
-2.648932187155328938e+04
-2.648933070368821063e+04
-2.648933899458870656e+04
-2.648934670098866991e+04
-2.648935378193498036e+04
-2.648936019824323739e+04
-2.648936561167594482e+04
-2.648937040155979048e+04
-2.648937453660168103e+04
-2.648937798931812358e+04
-2.648938073535492731e+04
-2.648938275484778205e+04
-2.648938403283042499e+04
-2.648938455896253072e+04
-2.648938432943450971e+04
-2.648938334628720986e+04
-2.648938161795616543e+04
-2.648937915967974550e+04
-2.648937599390734613e+04
-2.648937214921092163e+04
-2.648936766096526480e+04
-2.648936257039562770e+04
-2.648935692416953316e+04
-2.648935077303621074e+04
-2.648934417169054359e+04
-2.648933717727643307e+04
-2.648932984816230237e+04
-2.648932224326079449e+04
-2.648931442094033264e+04
