2.185437687093010452e-05 -4.165187121283149611e-05 5.862115207731840319e-05 8.484640432243451845e-06 -7.893286705147695777e-05 1.277838271159089593e-04 -1.360113572320238381e-04 7.841864641921978123e-05 -5.527871796764673536e-05 1.056723399288502597e-04 4.216609184508866588e-05 -1.311262612255806271e-04
-5.404561689149401521e-02 -2.837726559111241730e-03 -1.010983474049226630e-02 2.417916834936480880e-02 -2.283242451348325638e-02 1.655584747615213362e-02 -1.650648229545544077e-02 1.091253314744572260e-02 -7.041248828529163284e-02 4.637293083758464718e-02 1.475761792514877595e-02 6.396647554963176552e-02
-1.083493725403811420e-01 -5.828433756318994463e-03 -1.996281627517207391e-02 4.781737659359507064e-02 -4.512620291467712291e-02 3.316131724331708441e-02 -3.249642996580855148e-02 2.167851341469815077e-02 -1.414294429238015793e-01 9.302842591259462279e-02 2.927612325629797008e-02 1.282311990659727174e-01
-1.618478586791535223e-01 -8.508808801959538357e-03 -2.895344980955658759e-02 7.172452222849581838e-02 -6.691424532404603720e-02 5.029566293075854455e-02 -4.792484870573682221e-02 3.224523318695091817e-02 -2.122252826904409417e-01 1.380481851563944984e-01 4.317782093905467300e-02 1.908828124589228847e-01
-2.148897168964815085e-01 -1.297918586848732271e-02 -3.953225376666739954e-02 9.468370212783047690e-02 -8.623917090490308690e-02 6.669801554818190203e-02 -6.496457779684296219e-02 4.066456759889770789e-02 -2.836451291943243858e-01 1.851705925654940077e-01 5.855378917449270693e-02 2.564793674128099110e-01
-2.674780325161587036e-01 -1.780951737759513612e-02 -4.986731714408831201e-02 1.179735258937065073e-01 -1.044035005187556736e-01 8.391489364710064125e-02 -8.169885983238832361e-02 4.839073259856182391e-02 -3.563147889449088668e-01 2.312033664548405199e-01 7.382228529778898929e-02 3.222672124418966000e-01
-3.195223027069077903e-01 -2.347854273791440474e-02 -6.086855335059839639e-02 1.407527285717511401e-01 -1.201396803070898800e-01 1.012760106333674970e-01 -9.880646604695240975e-02 5.444465210212558887e-02 -4.297879184333953106e-01 2.775760401821090739e-01 8.917382805319482020e-02 3.893804611506261892e-01
-3.713991940818571202e-01 -3.004154066741277634e-02 -7.220326163712725842e-02 1.632766207058800878e-01 -1.325655647752684574e-01 1.188304745773630933e-01 -1.160161450570195568e-01 5.789532965488739663e-02 -5.040717167486351569e-01 3.241387184329966309e-01 1.047117757877938510e-01 4.574447609187153874e-01
-4.196089210178644002e-01 -3.846910260947567634e-02 -8.246376302287088123e-02 1.843167292056309414e-01 -1.413867626113242404e-01 1.370400556068542830e-01 -1.327576261814165104e-01 5.979151823633573754e-02 -5.790098608184220952e-01 3.680498179936500525e-01 1.200643469844641931e-01 5.244335682344387628e-01
-4.691221972566437248e-01 -4.880725131069013623e-02 -9.497603655726868932e-02 2.052984736636206120e-01 -1.458409417279359355e-01 1.550166946899330378e-01 -1.512086337977525119e-01 5.755054472095894741e-02 -6.560956473588313020e-01 4.150323573907755415e-01 1.370976483176671035e-01 5.960552463364831022e-01
-5.162608026156592089e-01 -6.109429620815928774e-02 -1.075106786891696919e-01 2.256988916968435399e-01 -1.453873991302850888e-01 1.735715748739849462e-01 -1.702867334751260731e-01 5.239959664763879643e-02 -7.344595292807156728e-01 4.608483872836256490e-01 1.540820986908056078e-01 6.683986330959005295e-01
-5.599304755894679575e-01 -7.452419646082003579e-02 -1.203070591228895675e-01 2.444257786823854917e-01 -1.402012269436553049e-01 1.914260865569025749e-01 -1.886423531641783502e-01 4.407616438360796585e-02 -8.089611000337164626e-01 5.041470500712608160e-01 1.706490019105512679e-01 7.378423297100196177e-01
-6.021143080463695618e-01 -9.067535229938578079e-02 -1.341858739875108342e-01 2.619954121350326348e-01 -1.291115447883970091e-01 2.095292239155165381e-01 -2.074152628963072953e-01 3.185468261675158952e-02 -8.845718446904958787e-01 5.475341588076441113e-01 1.879322144710311726e-01 8.092282376521739984e-01
-6.433568596359241498e-01 -1.087427513240578902e-01 -1.484886637634281470e-01 2.796385791380926467e-01 -1.121528054468713675e-01 2.279120972980784587e-01 -2.277748003892657858e-01 1.554000461712807570e-02 -9.620281271964463699e-01 5.914930808870973999e-01 2.053555521538011630e-01 8.826049507721123177e-01
-6.836627583438226186e-01 -1.293522000442933750e-01 -1.640407525654142828e-01 2.967083901361857734e-01 -8.847654487585406013e-02 2.466338420772977991e-01 -2.488159373302811506e-01 -5.525557803919515544e-03 -1.040692571077885153e+00 6.357705626482340611e-01 2.233540456137508012e-01 9.580992244556855164e-01
-7.200698362179470680e-01 -1.513454164859329154e-01 -1.794912827925295717e-01 3.126263469180228793e-01 -5.992033050471615857e-02 2.646459623840022868e-01 -2.692325533134201643e-01 -2.945738602916862445e-02 -1.114492487778171004e+00 6.766760426133442419e-01 2.407231330198176533e-01 1.029337808186698178e+00
-7.562005205022331866e-01 -1.756711377154910048e-01 -1.964021996152552907e-01 3.282553117045314273e-01 -2.426658585684852987e-02 2.827254455935324651e-01 -2.906225889534220230e-01 -5.836635575403497506e-02 -1.189260424818680884e+00 7.185680548614398200e-01 2.583040793263745027e-01 1.102937178840403654e+00
-7.906126794335158747e-01 -2.029510564773665815e-01 -2.140924178061667515e-01 3.432625837466410923e-01 1.948947618317933492e-02 3.006869151679595342e-01 -3.134691545342924157e-01 -9.265381618199526603e-02 -1.264050216236061841e+00 7.608195073314831802e-01 2.761153964761824953e-01 1.177455461763952993e+00
-8.233613346194466054e-01 -2.307927612799831885e-01 -2.322729453699354518e-01 3.582050639890863031e-01 6.694021346597503475e-02 3.180428899479038618e-01 -3.359524232384730191e-01 -1.291300567311582659e-01 -1.334628283564940121e+00 8.011086938688332104e-01 2.929826045451663918e-01 1.248858596097287776e+00
-8.558464517313453257e-01 -2.610808707405632978e-01 -2.519732520123402764e-01 3.735589207373372633e-01 1.217759303589322356e-01 3.354322890689448999e-01 -3.600428885287735303e-01 -1.707199643578027615e-01 -1.404968266741083660e+00 8.423306766330976858e-01 3.100251618497499306e-01 1.321509229684478814e+00
-8.876093459652391049e-01 -2.941838239421191714e-01 -2.736515083167222473e-01 3.893560356705939585e-01 1.847026517901399767e-01 3.523776586740318129e-01 -3.860830213462769778e-01 -2.177084172921992244e-01 -1.473489451540933359e+00 8.843363316409221797e-01 3.271895894441784747e-01 1.394763301183623794e+00
-9.186363904743727327e-01 -3.266344882716568088e-01 -2.948908773114727877e-01 4.053765794685663115e-01 2.492723081414094100e-01 3.680850421069595813e-01 -4.114803783734590770e-01 -2.653872114254010040e-01 -1.536140293602934914e+00 9.247401893792654981e-01 3.427493915556484305e-01 1.462946128807448121e+00
-9.494855146447453986e-01 -3.614953047045838530e-01 -3.182485782008067643e-01 4.222579286049372715e-01 3.212883934683950504e-01 3.835314585690168809e-01 -4.388155758533022754e-01 -3.178888808685428891e-01 -1.596224660489341307e+00 9.660431618931104580e-01 3.580957921047316916e-01 1.530941780121131135e+00
-9.791259632189975859e-01 -3.956009881390412652e-01 -3.418891004378821763e-01 4.396000194278106843e-01 3.949003625275908647e-01 3.976072199357926218e-01 -4.667362135229704001e-01 -3.712739813579025161e-01 -1.649713890656733017e+00 1.006262157314157246e+00 3.719746069693529167e-01 1.593995771158822405e+00
-1.010643059990672166e+00 -4.314393379938892270e-01 -3.673201389164770791e-01 4.592365627118155103e-01 4.744688062805376139e-01 4.109571588801373965e-01 -4.969271352840539113e-01 -4.281920347011851091e-01 -1.699545726577195603e+00 1.048333889673226826e+00 3.851625664145366668e-01 1.655908963723851546e+00
-1.041317606256393580e+00 -4.656494082166948156e-01 -3.935222512331416067e-01 4.799149169967734663e-01 5.536284446308401552e-01 4.223486885465306817e-01 -5.277621183870394583e-01 -4.846400903865847321e-01 -1.740516769672918462e+00 1.089164550536343645e+00 3.966610539724393925e-01 1.711690332359529387e+00
-1.074128739249143649e+00 -5.008807206151631997e-01 -4.215603883172803767e-01 5.033194119636429376e-01 6.371630721203864756e-01 4.329552604177834274e-01 -5.611607484521432543e-01 -5.437278976876764869e-01 -1.774928671493885002e+00 1.131970075737644077e+00 4.074458032927692486e-01 1.763533799393382173e+00
-1.105392325249115570e+00 -5.333977194062620164e-01 -4.494476016458517353e-01 5.272304142532855398e-01 7.184119888995498249e-01 4.409297939828276669e-01 -5.949656128167302160e-01 -6.007485380470944936e-01 -1.799623860247720142e+00 1.173127780922876395e+00 4.157340114434904810e-01 1.808141667910744044e+00
-1.137486120459866967e+00 -5.660070208008510795e-01 -4.789024165718591131e-01 5.538138211687687606e-01 8.023397380624569530e-01 4.469765143975398813e-01 -6.316465131775315101e-01 -6.592997561184258393e-01 -1.815226856892299789e+00 1.215318812468629384e+00 4.229670388568200212e-01 1.847152759066618577e+00
-1.168323931776329871e+00 -5.951715581799492671e-01 -5.084611040655824254e-01 5.818097921610625445e-01 8.811479066106114866e-01 4.510897652349650233e-01 -6.688619458855641353e-01 -7.138919895420092754e-01 -1.820279845935174778e+00 1.255376085500831573e+00 4.279153840010307408e-01 1.877651184765792181e+00
-1.200894666623499640e+00 -6.230852538710818234e-01 -5.408883713563523710e-01 6.135289776412142793e-01 9.603551103693976909e-01 4.535472256365220556e-01 -7.100556465150545948e-01 -7.686516017813922463e-01 -1.815763446122059976e+00 1.297421335497339845e+00 4.313817452830764343e-01 1.903104848952206218e+00
-1.229975128929223782e+00 -6.471764904923306139e-01 -5.721108197057436229e-01 6.450527592811083899e-01 1.032939923715659569e+00 4.543751208544561937e-01 -7.514385803372155559e-01 -8.184371578449517459e-01 -1.802286237571231631e+00 1.336360692875014466e+00 4.326739817319387171e-01 1.920021936422519060e+00
-1.257586719998905034e+00 -6.692075021504410026e-01 -6.052461688071318902e-01 6.787372960177472381e-01 1.104305005722207689e+00 4.541069547947340079e-01 -7.965737821129571516e-01 -8.670852578699581592e-01 -1.779927410260057075e+00 1.375423206094115169e+00 4.319877542981915841e-01 1.931066881382770717e+00
-1.281714466285044152e+00 -6.870509580897652402e-01 -6.376875771652888991e-01 7.121014733004897845e-01 1.167834136624104957e+00 4.531206796220648148e-01 -8.416305652422796379e-01 -9.097830538488009822e-01 -1.751319516715377445e+00 1.411243558226833894e+00 4.290001324247773029e-01 1.935886414258601640e+00
-1.303618208336670969e+00 -7.023955588666354055e-01 -6.721408737471521455e-01 7.472469108533711379e-01 1.228744856066548374e+00 4.516016718743769975e-01 -8.902077028200345854e-01 -9.505172983433695100e-01 -1.715218657227761900e+00 1.446578743193018379e+00 4.241680011434565967e-01 1.935757859100536882e+00
-1.320639425485015783e+00 -7.135220077971001773e-01 -7.049288668114503942e-01 7.806907923341135369e-01 1.281182247930658047e+00 4.506948437893916193e-01 -9.372817734897019859e-01 -9.847754481952911698e-01 -1.675908546774230068e+00 1.477230406640604121e+00 4.171152080617332447e-01 1.930142569796288621e+00
-1.333617840022554901e+00 -7.211707825916096049e-01 -7.397829983761582406e-01 8.145982437148359123e-01 1.329799494717729180e+00 4.497157677055738101e-01 -9.876232020567313752e-01 -1.016006381185114771e+00 -1.630367367809321122e+00 1.506642798364450364e+00 4.073779261693113440e-01 1.920434598479905386e+00
-1.341657936718211985e+00 -7.247836967538485720e-01 -7.726249846068435900e-01 8.463122869886648969e-01 1.369609427625815279e+00 4.504107368900694408e-01 -1.036080526227170395e+00 -1.040869720085697780e+00 -1.585556125031901464e+00 1.531426175956717373e+00 3.960442463240469446e-01 1.907770372748675447e+00
-1.344004325463201477e+00 -7.242944158222557327e-01 -8.068111435702491896e-01 8.770935340355797694e-01 1.403661632114518110e+00 4.513257925051711861e-01 -1.086702719259412309e+00 -1.061360898060514035e+00 -1.535136792039085263e+00 1.553613510687033905e+00 3.819936817682517693e-01 1.890622143104163433e+00
-1.341194623928548157e+00 -7.203112628047917410e-01 -8.390831162300774748e-01 9.043384857944618549e-01 1.428587191711604198e+00 4.531705590233937042e-01 -1.134532951368814047e+00 -1.075146896101012883e+00 -1.485211625073867836e+00 1.571389089502900127e+00 3.668709671942004813e-01 1.871123925170235625e+00
-1.331852777702331903e+00 -7.118353641232966211e-01 -8.721906974173235794e-01 9.299793262910176495e-01 1.446782631673708241e+00 4.559193254131244655e-01 -1.183877306129896834e+00 -1.083421734515295443e+00 -1.431222829562238452e+00 1.585750500430894938e+00 3.484744669648837112e-01 1.847494201566437511e+00
-1.318200219915903970e+00 -7.001301598712265095e-01 -9.034967066194569130e-01 9.519134073599475609e-01 1.456180013728208378e+00 4.596389403565568355e-01 -1.229758899153359453e+00 -1.085221249617879469e+00 -1.378896252244380172e+00 1.596045454598999713e+00 3.291713957608976004e-01 1.822754018507279916e+00
-1.297525208065055669e+00 -6.838903009735963767e-01 -9.350251162450413656e-01 9.717921485617458943e-01 1.457822691537953741e+00 4.643240045370519153e-01 -1.276776662663794637e+00 -1.081317800798414996e+00 -1.323093543452463328e+00 1.602509722167104522e+00 3.073854102340576877e-01 1.793794912270768593e+00
-1.273281247916026482e+00 -6.647579510195196217e-01 -9.645634920237905474e-01 9.882790904731751924e-01 1.451877272587796197e+00 4.695181471434816678e-01 -1.320005905666075119e+00 -1.072034318613960258e+00 -1.269072866261633736e+00 1.605007805998610149e+00 2.849149970456835157e-01 1.764118468252258376e+00
-1.243788380663232163e+00 -6.410940317436765179e-01 -9.947729257276350934e-01 1.003521618454542574e+00 1.438296962800200474e+00 4.761983873771347686e-01 -1.364383660450501967e+00 -1.056722885067870488e+00 -1.212317820858776596e+00 1.604650422659191333e+00 2.595199540113465875e-01 1.730892359209277309e+00
-1.212739995997859754e+00 -6.154400786209981433e-01 -1.022628771597638764e+00 1.016289716753488559e+00 1.418770462731498538e+00 4.833635376670062378e-01 -1.405118419165702681e+00 -1.037340880996832970e+00 -1.158096340511050482e+00 1.601568698410073877e+00 2.340107539966485850e-01 1.697361574441683230e+00
-1.177277284314875772e+00 -5.849293116266506276e-01 -1.050880567354480544e+00 1.028427123446970626e+00 1.391730170784254872e+00 4.918654044904303690e-01 -1.446594169811985964e+00 -1.012230973303082315e+00 -1.101166460093226274e+00 1.595444073569574739e+00 2.054301141454784596e-01 1.660181365846959967e+00
-1.142160900227716880e+00 -5.528907951338671856e-01 -1.076868763888126246e+00 1.039410104821035796e+00 1.360010985304102915e+00 5.008416398471116082e-01 -1.485014678571713542e+00 -9.841501559064663729e-01 -1.047478740761783156e+00 1.587765473978394404e+00 1.770299657362305878e-01 1.623505864802797349e+00
-1.104136341354827522e+00 -5.161515307313045975e-01 -1.103257281183983807e+00 1.050436280728210159e+00 1.320979839543569900e+00 5.112219546401712833e-01 -1.524134013170678204e+00 -9.504561060881308032e-01 -9.915855291385891057e-01 1.577834073797295567e+00 1.456277972758653061e-01 1.583620855682401851e+00
-1.067317372754265081e+00 -4.783385736485890605e-01 -1.127373714616213274e+00 1.060636875410295943e+00 1.278436309754404698e+00 5.219578530004365113e-01 -1.560193992118029227e+00 -9.147823068356051301e-01 -9.391640781140793148e-01 1.566874232351682217e+00 1.146845707297895756e-01 1.544579939729856077e+00
-1.028347676359287144e+00 -4.359253987897008242e-01 -1.151781711146932619e+00 1.071137003610671323e+00 1.228544567130284149e+00 5.340641493456672606e-01 -1.596937884506282046e+00 -8.735176437588634268e-01 -8.851104908027853657e-01 1.554148557254897645e+00 8.089847541828003308e-02 1.502828052604050502e+00
-9.911322436512542966e-01 -3.930692228561230572e-01 -1.174013011741307233e+00 1.081039093215731661e+00 1.176426763389122110e+00 5.462609485221753269e-01 -1.630630648773036651e+00 -8.311108966578782953e-01 -8.345996265374270306e-01 1.540723799208559175e+00 4.775335612487904835e-02 1.462351689756558937e+00
-9.519033800576186533e-01 -3.456848200348885403e-01 -1.196282364662468511e+00 1.091013945040256727e+00 1.116774856054444376e+00 5.595517520938105838e-01 -1.664559954530630215e+00 -7.831189421596318478e-01 -7.825862095846135569e-01 1.525449646658308289e+00 1.202916325039218512e-02 1.419316822153271707e+00
-9.146439814855279460e-01 -2.983906629346150807e-01 -1.216503319695033891e+00 1.100196897091105130e+00 1.055562289100866025e+00 5.726368674125428271e-01 -1.695386967213815543e+00 -7.344500161990189513e-01 -7.340581800772391086e-01 1.509834051608238470e+00 -2.272160996723183654e-02 1.377924632359730062e+00
-8.758141531025238624e-01 -2.468084199819491065e-01 -1.236624001704308862e+00 1.109492720570734337e+00 9.873051565956803000e-01 5.868293568628408785e-01 -1.726276457703820322e+00 -6.807610113159953125e-01 -6.846971131456079940e-01 1.492597890235609848e+00 -5.973572529773583939e-02 1.334492015097392015e+00
-8.390288659533743365e-01 -1.959170324487206627e-01 -1.254822784100522837e+00 1.117748532821623231e+00 9.183324860807087209e-01 6.004621171549271441e-01 -1.753837140930908589e+00 -6.268904865497848533e-01 -6.384640503199973116e-01 1.475117731172975510e+00 -9.552496708220323263e-02 1.292824460155276745e+00
-8.007677655896466851e-01 -1.410196090798926105e-01 -1.272638215015388985e+00 1.125939296162531855e+00 8.426397232330843368e-01 6.150071048486375203e-01 -1.780970249702274799e+00 -5.682212548433505095e-01 -5.914624847594781576e-01 1.455798976239705889e+00 -1.333988593098412445e-01 1.249093594926229400e+00
-7.645905443381413313e-01 -8.732109111517219469e-02 -1.288514777036329217e+00 1.132966378212642233e+00 7.673714495173881156e-01 6.289090596417103995e-01 -1.805193898136329578e+00 -5.106087465362044719e-01 -5.483340290011201601e-01 1.436818064261828898e+00 -1.694416118660113935e-01 1.207939746395739089e+00
-7.181211971320082821e-01 -2.972323809604558373e-02 -1.303961964829334796e+00 1.132561943685372219e+00 6.876492537953963202e-01 6.428097288832026468e-01 -1.825147715550437200e+00 -4.489369805580203932e-01 -5.035284426506554389e-01 1.410706968997073707e+00 -2.089890351413303815e-01 1.164680678596787811e+00
-6.854352768632130388e-01 2.553465393599473401e-02 -1.317825867295620679e+00 1.140157239534126621e+00 6.067145258225422610e-01 6.567649055117140700e-01 -1.846205564662000809e+00 -3.877771212192482331e-01 -4.626810696169902370e-01 1.391483344880771300e+00 -2.444718014289725128e-01 1.123742288511213161e+00
-6.513794728300845716e-01 8.367115306741074177e-02 -1.331306161170242586e+00 1.146930039481586006e+00 5.208329953673739299e-01 6.713168351839599035e-01 -1.866112330888257009e+00 -3.230166890134114066e-01 -4.216645179953125155e-01 1.370561507126439649e+00 -2.814874594213733205e-01 1.081653843981595253e+00
-6.191154705900563382e-01 1.391421895515216334e-01 -1.343161003626299532e+00 1.152268163865047601e+00 4.378920355977684586e-01 6.849786489417687418e-01 -1.882903177193350652e+00 -2.608271028585443241e-01 -3.837168351069455974e-01 1.349750483918359167e+00 -3.162073794010618610e-01 1.041899189791476665e+00
-5.855638598868559974e-01 1.971190231766218326e-01 -1.354395181779222357e+00 1.156387328239743884e+00 3.501189445468421702e-01 6.989284262536414882e-01 -1.898062401432292434e+00 -1.954069255815215345e-01 -3.455218120944630322e-01 1.327238933079404548e+00 -3.518310421419424405e-01 1.000988567620043845e+00
-5.538685856661040852e-01 2.520637548436174824e-01 -1.363968941510586452e+00 1.159217084379055240e+00 2.660634115568192293e-01 7.120788475926704830e-01 -1.910171011770368299e+00 -1.329021221790807894e-01 -3.103858876232783448e-01 1.304822513057417366e+00 -3.852250442213558945e-01 9.622759815411944251e-01
-5.215045675131018132e-01 3.083899402391721001e-01 -1.372827163232164915e+00 1.161281165996935538e+00 1.784777539263506796e-01 7.255956511321826063e-01 -1.920428942052951005e+00 -6.806070022366343675e-02 -2.754613078319513852e-01 1.280652343569116836e+00 -4.188069939418593846e-01 9.226928199319335278e-01
-4.910115411305672750e-01 3.612785607080874484e-01 -1.380313444306880966e+00 1.161516164825876940e+00 9.487679197524304109e-02 7.377891078745810738e-01 -1.927533414308215898e+00 -7.325330016819641722e-03 -2.430391827475039679e-01 1.257028790612906066e+00 -4.488300226665108972e-01 8.855635191798039152e-01
-4.607709970784709674e-01 4.138915589181129673e-01 -1.387689939276609996e+00 1.161465771203915809e+00 1.141955469085129994e-02 7.509176748367389909e-01 -1.933777338335398666e+00 5.529054504218864491e-02 -2.112598334533781208e-01 1.233082821320269806e+00 -4.806016586511529520e-01 8.480320978932490705e-01
-4.320749146953590802e-01 4.629672333988414379e-01 -1.393051460698839561e+00 1.159523045655248330e+00 -6.887599703610718105e-02 7.624297892413965938e-01 -1.935835506416008212e+00 1.135147187914045119e-01 -1.817955054456740216e-01 1.208387375456118740e+00 -5.076059551541387549e-01 8.124171769031169887e-01
-4.037105046200531455e-01 5.112461230098872544e-01 -1.398045571479321181e+00 1.157065842364007446e+00 -1.487964248118340549e-01 7.745414849032661309e-01 -1.936431745239110214e+00 1.721124738299551760e-01 -1.532359486404263893e-01 1.183076407495156079e+00 -5.345621720280083755e-01 7.767400352164816058e-01
-3.775865538394916898e-01 5.546838824785479405e-01 -1.401772899732237398e+00 1.153782800737361391e+00 -2.223970810171202184e-01 7.861739269358718474e-01 -1.934863372310726026e+00 2.260796720750299915e-01 -1.275871377240705706e-01 1.158667382523172140e+00 -5.583664735364577414e-01 7.431861105204362605e-01
-3.512782549622660011e-01 5.964985045214888926e-01 -1.404580287274045380e+00 1.148630824222776736e+00 -2.950991366675369543e-01 7.974770106535168379e-01 -1.930089090850533928e+00 2.794290342304477925e-01 -1.020838512466435422e-01 1.132736778700339508e+00 -5.808284020843996753e-01 7.091873849774883443e-01
-3.273752230924232842e-01 6.329958281165742884e-01 -1.406458221023048738e+00 1.143034818192237845e+00 -3.606643241628562646e-01 8.082828430197692704e-01 -1.923474927968125803e+00 3.275996803984035366e-01 -7.941417756326968336e-02 1.107815332868311575e+00 -5.999314414624377090e-01 6.775895555665490955e-01
-3.039113356425282020e-01 6.668521145443870868e-01 -1.407597476833814643e+00 1.136392887395688112e+00 -4.240330182274891224e-01 8.194427162913305862e-01 -1.914261636899974306e+00 3.742358921997038235e-01 -5.750657885690096255e-02 1.081780085146814452e+00 -6.170549885166017878e-01 6.456613393993848593e-01
-2.825274706501134103e-01 6.950020946160417878e-01 -1.407596962613182123e+00 1.128704517612494795e+00 -4.797087145232383221e-01 8.297415271141773685e-01 -1.902634851294323637e+00 4.153406326598137466e-01 -3.803124374110869454e-02 1.056457804331941919e+00 -6.306340127526171013e-01 6.158866792401135326e-01
-2.615195009398786352e-01 7.195736133078188823e-01 -1.406667765930693426e+00 1.119894632630348719e+00 -5.318699699078258680e-01 8.403396143449979316e-01 -1.888469101316902599e+00 4.539712005478181434e-01 -1.956635216770178862e-02 1.030093969626432404e+00 -6.416748439478109356e-01 5.858945037533974665e-01
-2.431206867177167497e-01 7.382740179307994977e-01 -1.405811845688301531e+00 1.111116886437718776e+00 -5.757401889282148799e-01 8.507497539347282922e-01 -1.873239943071973723e+00 4.867746202310842540e-01 -3.453248655923084852e-03 1.005243743351971863e+00 -6.493084492336689273e-01 5.585153404094961305e-01
-2.245976882128647989e-01 7.523742047776075248e-01 -1.403035825605061016e+00 1.100073741249679715e+00 -6.151431162058697000e-01 8.607220346560918722e-01 -1.854245918467974263e+00 5.164955443342845731e-01 1.187335439881826230e-02 9.787698654311595137e-01 -6.537266329060225090e-01 5.304404365501509400e-01
-2.079186848952870870e-01 7.604736939562901643e-01 -1.399456335783918925e+00 1.088430243473480274e+00 -6.463534803704029663e-01 8.700690230886305443e-01 -1.833667065875358215e+00 5.404186308087853829e-01 2.517135705930503842e-02 9.531555072971651388e-01 -6.545388443946726920e-01 5.042159556359832040e-01
-1.914373994108122534e-01 7.631224444330469980e-01 -1.394546814297443316e+00 1.075170807360412706e+00 -6.718788783350171379e-01 8.794136975283241009e-01 -1.810049683566734124e+00 5.604562661859507910e-01 3.754839056741920283e-02 9.263162756171336998e-01 -6.516998322839808733e-01 4.775847262017000050e-01
-1.771790897195851811e-01 7.599502173526525572e-01 -1.388964435113659412e+00 1.061552959466662172e+00 -6.894037745926577809e-01 8.881683037925026669e-01 -1.785136979485454578e+00 5.748711560597001835e-01 4.798269852686574966e-02 9.007631097383776986e-01 -6.454175988196949598e-01 4.528131756839750000e-01
-1.634239449170217795e-01 7.509870946220937871e-01 -1.382824383654192690e+00 1.046819252800913258e+00 -7.005435932595611703e-01 8.973707962273772543e-01 -1.757397090368024939e+00 5.848043560130121721e-01 5.757805552478471173e-02 8.740017824841334049e-01 -6.352478573755446778e-01 4.278757890123469632e-01
-1.508790183724756373e-01 7.362862980768093424e-01 -1.375358928515082679e+00 1.031188745352507929e+00 -7.040089261003423804e-01 9.053797825747827988e-01 -1.728731604112532461e+00 5.894845350975008724e-01 6.526668241829405859e-02 8.484218771325000574e-01 -6.217616499636517968e-01 4.047124635220062938e-01
-1.392692020476891668e-01 7.155827469808708763e-01 -1.367697555315083191e+00 1.014418724983020548e+00 -7.007281984665415520e-01 9.138482250571099419e-01 -1.697051756510748133e+00 5.893120140753785874e-01 7.245137309219133737e-02 8.219022335754168074e-01 -6.041668197000240603e-01 3.813979571657818424e-01
-1.285543867333463486e-01 6.898375196959667388e-01 -1.358683781852247030e+00 9.971108298321923469e-01 -6.906754422162298956e-01 9.214162672123550335e-01 -1.664761271908159035e+00 5.843428429955612735e-01 7.801883987763982842e-02 7.962048288093125370e-01 -5.835046633649821901e-01 3.592486747622522514e-01
-1.181730434990223011e-01 6.576069417970351605e-01 -1.348600686584632280e+00 9.782091078316831334e-01 -6.736254287124785467e-01 9.289539703502969203e-01 -1.629704794524657885e+00 5.744608079951590840e-01 8.275815433483812988e-02 7.696687301919969970e-01 -5.584425781900318464e-01 3.368885618994972297e-01
-1.087967444904448799e-01 6.213142780135880727e-01 -1.338091559523192364e+00 9.590081094232001391e-01 -6.508922487810210322e-01 9.357833345673044478e-01 -1.594389149942499140e+00 5.604284982718089614e-01 8.644434493717369217e-02 7.441780421200603346e-01 -5.308502703940599643e-01 3.158638800187140716e-01
-9.960119403410588879e-02 5.786244524545454126e-01 -1.326259085664638571e+00 9.380880714410813059e-01 -6.213122211310589948e-01 9.423807852791641348e-01 -1.556336566045152026e+00 5.415267762712996369e-01 8.941345486782664720e-02 7.178496886381765529e-01 -4.988392647051022033e-01 2.944648455176477331e-01
-9.124022366392027517e-02 5.328279629457209898e-01 -1.314052773406433561e+00 9.169343201816013700e-01 -5.872461326852853603e-01 9.482213032203412606e-01 -1.518288353023178550e+00 5.192427680621186648e-01 9.147985047855212992e-02 6.925939993951814033e-01 -4.648243412122382012e-01 2.743516197075404062e-01
-8.287565374930888629e-02 4.811585595958874917e-01 -1.300664782135301678e+00 8.941060094331761965e-01 -5.468196492391227403e-01 9.537833706891508667e-01 -1.477798877549564516e+00 4.922618685979005537e-01 9.291015516717547607e-02 6.665687789760132986e-01 -4.266007789546653051e-01 2.539709991686593948e-01
-7.519191195180599530e-02 4.271815911587997783e-01 -1.286998083281486682e+00 8.711740832273513480e-01 -5.031674597668108762e-01 9.585311697867813230e-01 -1.437577053915040315e+00 4.628427920058351130e-01 9.380952705299328009e-02 6.415946255291788969e-01 -3.868569233978240707e-01 2.346571293313958750e-01
-6.755367868025785594e-02 3.679068646578825263e-01 -1.271986440364002879e+00 8.466820116232578464e-01 -4.538891823569731199e-01 9.629185002211997357e-01 -1.394908825622552584e+00 4.291014338893319180e-01 9.419879207161195589e-02 6.157807497898685201e-01 -3.431191161902413245e-01 2.148691480711912016e-01
-6.036615979288313671e-02 3.076715740159088330e-01 -1.256681434575816381e+00 8.221601152224937703e-01 -4.027576537884805519e-01 9.665239581842710592e-01 -1.353015527822876152e+00 3.938115003387862578e-01 9.391365673102536338e-02 5.912215723932655598e-01 -2.987254205662145945e-01 1.962438196605200968e-01
-5.319201064194710449e-02 2.430073010683040657e-01 -1.240149755469380333e+00 7.957492293291328345e-01 -3.470143374795894853e-01 9.693043491428855463e-01 -1.309066118825119807e+00 3.548975968824081839e-01 9.320943157514914590e-02 5.665091572482501281e-01 -2.508905604711227366e-01 1.776359747513456822e-01
-4.631173858234605145e-02 1.785489734839182940e-01 -1.223653814696886055e+00 7.695383752617198647e-01 -2.908773852767054802e-01 9.715589495050170887e-01 -1.265796509503207101e+00 3.152946377788053423e-01 9.219693115023476493e-02 5.425698728238332880e-01 -2.029662259860181839e-01 1.598979340416342987e-01
-3.933479304388064202e-02 1.106104006604159556e-01 -1.205890062955561781e+00 7.418265111687482039e-01 -2.312082515508469827e-01 9.730794999146016311e-01 -1.220618627414988167e+00 2.727058565740012597e-01 9.083887446044355829e-02 5.181269092901205076e-01 -1.521080056835703020e-01 1.419716885805167861e-01
-3.265480992054376613e-02 4.410984583502081113e-02 -1.188137109847515083e+00 7.143280486381632377e-01 -1.724078935831869219e-01 9.737978661378648981e-01 -1.176406708784464294e+00 2.302119490758486597e-01 8.929826944620104789e-02 4.947334700668447605e-01 -1.019139013276825489e-01 1.250412313737652992e-01
-2.577016698556852323e-02 -2.449155738346104477e-02 -1.169429506135682972e+00 6.861631561681731384e-01 -1.118136769398977576e-01 9.745247170015602922e-01 -1.131090501346168065e+00 1.857840577797768011e-01 8.721001945860464011e-02 4.706975121635635362e-01 -4.947908056673414046e-02 1.076947696755177625e-01
-1.923108031547010599e-02 -9.080904966377263687e-02 -1.150469677203728391e+00 6.575714605734095386e-01 -5.290147598472179358e-02 9.737749833197294480e-01 -1.086410899050606504e+00 1.420943302013101261e-01 8.507883204821477252e-02 4.480705187926669608e-01 1.616195447184313409e-03 9.161611894610029172e-02