5.408135082828708917e+00 0.000000000000000000e+00 -4.197233281201947716e-05 0.000000000000000000e+00 5.407673387167776902e+00 -0.000000000000000000e+00 -4.197233281201947716e-05 -0.000000000000000000e+00 5.408177055161521807e+00
5.364861607699517698e+00 1.217197651548564824e-03 1.217197651548564824e-03 1.217197651548564824e-03 5.332710800765510406e+00 1.594948646856739942e-03 1.217197651548564824e-03 1.594948646856739942e-03 5.385176216780535263e+00
5.395291548988232044e+00 5.288513934314453824e-03 4.323150279638005890e-03 5.288513934314453824e-03 5.266478459588143757e+00 6.673600917111096285e-03 4.323150279638005890e-03 6.673600917111096285e-03 5.475836455654496504e+00
5.427862079250358462e+00 1.208803184986160899e-02 9.317857884268322330e-03 1.208803184986160899e-02 5.136825923531815441e+00 1.506806747951499117e-02 9.317857884268322330e-03 1.506806747951499117e-02 5.608469027340478696e+00
5.454976206246922921e+00 2.123800040288185628e-02 1.670498845918375400e-02 2.123800040288185628e-02 4.934477307045069594e+00 2.686229299969246712e-02 1.670498845918375400e-02 2.686229299969246712e-02 5.774469603612016222e+00
5.506854009602578870e+00 3.340997691836750799e-02 2.602284634345207459e-02 3.340997691836750799e-02 4.687092377451026692e+00 4.222416680889159307e-02 2.602284634345207459e-02 4.222416680889159307e-02 6.002715149443777598e+00
5.571953097794021481e+00 4.847804439788248876e-02 3.769115486519349079e-02 4.847804439788248876e-02 4.380778292588909828e+00 6.102777190867631624e-02 3.769115486519349079e-02 6.102777190867631624e-02 6.281201577651526868e+00
5.655645929421188711e+00 6.631628584299077700e-02 5.212963735252819364e-02 6.631628584299077700e-02 4.017339862769632397e+00 8.318916363342260256e-02 5.212963735252819364e-02 8.318916363342260256e-02 6.612950896197729023e+00
5.762381571762154486e+00 8.696667358650436719e-02 6.837293015077973435e-02 8.696667358650436719e-02 3.596189475333829044e+00 1.090441206456265882e-01 6.837293015077973435e-02 1.090441206456265882e-01 7.000271583387044139e+00
5.873692198379630192e+00 1.105551246268592913e-01 8.721850758337647280e-02 1.105551246268592913e-01 3.096466880873924854e+00 1.386765876109123663e-01 8.721850758337647280e-02 1.386765876109123663e-01 7.421673804819719500e+00
6.018748580577968355e+00 1.369557219656195313e-01 1.088762313143785271e-01 1.369557219656195313e-01 2.541088973105282811e+00 1.718347305324077201e-01 1.088762313143785271e-01 1.718347305324077201e-01 7.904565493822004463e+00
6.175641160629298021e+00 1.644056276246802784e-01 1.313734017016209843e-01 1.644056276246802784e-01 1.958177215011956518e+00 2.063779604366997311e-01 1.313734017016209843e-01 2.063779604366997311e-01 8.398160127691353338e+00
6.359354061347507248e+00 1.942479562540261051e-01 1.564308843903965962e-01 1.942479562540261051e-01 1.313104432024029267e+00 2.441530599675172941e-01 1.564308843903965962e-01 2.441530599675172941e-01 8.937462631992989515e+00
6.570726729388836951e+00 2.270283481802133629e-01 1.838388177166453141e-01 2.270283481802133629e-01 6.016733908602991399e-01 2.854118631217324453e-01 1.838388177166453141e-01 2.854118631217324453e-01 9.519283109433205325e+00
6.815635291346971769e+00 2.624949694063697936e-01 2.143946760037954979e-01 2.624949694063697936e-01 -1.756122404854894847e-01 3.302383145649692153e-01 2.143946760037954979e-01 3.302383145649692153e-01 1.014504861932760349e+01
7.078130260753340508e+00 2.975838396372180727e-01 2.459158979456221306e-01 2.975838396372180727e-01 -9.591097770874570383e-01 3.749808213425819270e-01 2.459158979456221306e-01 3.749808213425819270e-01 1.076737239793141576e+01
7.374664792070257491e+00 3.351490775039755454e-01 2.799134875233579289e-01 3.351490775039755454e-01 -1.807664429548054841e+00 4.228712530810962433e-01 2.799134875233579289e-01 4.228712530810962433e-01 1.142407151710827229e+01
7.710863177894534459e+00 3.750647660082060408e-01 3.166392787338749293e-01 3.750647660082060408e-01 -2.719723221553238091e+00 4.737836927820758826e-01 3.166392787338749293e-01 4.737836927820758826e-01 1.211510400452536196e+01
8.065319528492038259e+00 4.140570631905721166e-01 3.540366272693842853e-01 4.140570631905721166e-01 -3.628214365269399888e+00 5.238986581596271064e-01 3.540366272693842853e-01 5.238986581596271064e-01 1.278875994615827416e+01
8.463636966878103962e+00 4.548961430166670872e-01 3.943720391017350169e-01 4.548961430166670872e-01 -4.594879162263020511e+00 5.765739358387115265e-01 3.943720391017350169e-01 5.765739358387115265e-01 1.348751534281277564e+01
8.909928781668305930e+00 4.975820054864908415e-01 4.381911545574833644e-01 4.975820054864908415e-01 -5.616695604571634526e+00 6.317255811537050292e-01 4.381911545574833644e-01 6.317255811537050292e-01 1.420427687024363195e+01
9.365496482009966428e+00 5.380853066500896897e-01 4.814226573538633591e-01 5.380853066500896897e-01 -6.609844943569640030e+00 6.846107204968496784e-01 4.814226573538633591e-01 6.846107204968496784e-01 1.487318993826878533e+01
9.873361709035402001e+00 5.798477777980490799e-01 5.279280021095810183e-01 5.798477777980490799e-01 -7.647568900014007909e+00 7.393006701509111656e-01 5.279280021095810183e-01 7.393006701509111656e-01 1.554764335422512644e+01
1.040326241078714808e+01 6.198893833007156351e-01 5.745592638637345706e-01 6.198893833007156351e-01 -8.659395927113362035e+00 7.920179201628074761e-01 5.745592638637345706e-01 7.920179201628074761e-01 1.617848751638977944e+01
1.098881842584763113e+01 6.605605737955624335e-01 6.247581739069100193e-01 6.605605737955624335e-01 -9.703247844148286561e+00 8.461202571575006104e-01 6.247581739069100193e-01 8.461202571575006104e-01 1.679581658738896266e+01
1.158927461905638268e+01 6.987973689873121508e-01 6.748311669516491307e-01 6.987973689873121508e-01 -1.070168569708060424e+01 8.973265031881643150e-01 6.748311669516491307e-01 8.973265031881643150e-01 1.734934771251387531e+01
1.224937349719101043e+01 7.369082471806258638e-01 7.283039189541620217e-01 7.369082471806258638e-01 -1.171128819054092141e+01 9.487845832157002501e-01 7.283039189541620217e-01 9.487845832157002501e-01 1.787320439834069319e+01
1.291467694459433346e+01 7.720810620770981458e-01 7.813149752957425642e-01 7.720810620770981458e-01 -1.265541384481448972e+01 9.967589596198386248e-01 7.813149752957425642e-01 9.967589596198386248e-01 1.831932832379964182e+01
1.362761898973929675e+01 8.066242919813902956e-01 8.373480395997886516e-01 8.066242919813902956e-01 -1.359849019076775356e+01 1.044229668030232538e+00 8.373480395997886516e-01 1.044229668030232538e+00 1.871395219689825140e+01
1.433468490829057806e+01 8.373900119326005420e-01 8.924996849147821543e-01 8.373900119326005420e-01 -1.445548128212356964e+01 1.087167364496928412e+00 8.924996849147821543e-01 1.087167364496928412e+00 1.903248023060866601e+01
1.507683969707270499e+01 8.668965618994501909e-01 9.507153105250532032e-01 8.668965618994501909e-01 -1.529656485934362564e+01 1.128803918646451798e+00 9.507153105250532032e-01 1.128803918646451798e+00 1.929724170598688815e+01
1.579486039448792312e+01 8.922898232507219252e-01 1.007377959821279312e+00 8.922898232507219252e-01 -1.604153179442415933e+01 1.165235903527284789e+00 1.007377959821279312e+00 1.165235903527284789e+00 1.950349374942515013e+01
1.653479064963100953e+01 9.155844679613928117e-01 1.067608257406527539e+00 9.155844679613928117e-01 -1.675909079617844455e+01 1.199275465437832366e+00 1.067608257406527539e+00 1.199275465437832366e+00 1.967469889496537760e+01
1.722045067844816302e+01 9.345559623924256654e-01 1.125194298024618345e+00 9.345559623924256654e-01 -1.739169779632120338e+01 1.227690734751569757e+00 1.125194298024618345e+00 1.227690734751569757e+00 1.980414156935764680e+01
1.790480956494813825e+01 9.508831998563013199e-01 1.185844318937986364e+00 9.508831998563013199e-01 -1.799811406078925913e+01 1.252790189773157481e+00 1.185844318937986364e+00 1.252790189773157481e+00 1.991729897861884879e+01
1.851852901532548756e+01 9.627193977092907140e-01 1.243724165885760957e+00 9.627193977092907140e-01 -1.852730123288320030e+01 1.271929573535438340e+00 1.243724165885760957e+00 1.271929573535438340e+00 2.001261814643494930e+01
1.911201780128744332e+01 9.712817536029426657e-01 1.304542076130377426e+00 9.712817536029426657e-01 -1.903017175230400682e+01 1.286787779350893057e+00 1.304542076130377426e+00 1.286787779350893057e+00 2.010583869761044440e+01
1.962563323790812575e+01 9.754370145513326928e-01 1.362170089081280233e+00 9.754370145513326928e-01 -1.945900307664441087e+01 1.295727886239853355e+00 1.362170089081280233e+00 1.295727886239853355e+00 2.019267945419850818e+01
2.010592264227606663e+01 9.757727932138287041e-01 1.422568275997776022e+00 9.757727932138287041e-01 -1.985178016709928528e+01 1.299505396192935036e+00 1.422568275997776022e+00 1.299505396192935036e+00 2.028522844804901126e+01
2.050390430199963632e+01 9.719533109279350214e-01 1.479608676289310365e+00 9.719533109279350214e-01 -2.016812563950347581e+01 1.297574668883582083e+00 1.479608676289310365e+00 1.297574668883582083e+00 2.037504924026673336e+01
2.085735331660965031e+01 9.638946230280273086e-01 1.539125444216754346e+00 9.638946230280273086e-01 -2.043742012682539766e+01 1.289893731978982494e+00 1.539125444216754346e+00 1.289893731978982494e+00 2.047057826974689121e+01
2.113118081587526476e+01 9.521843421734738078e-01 1.595074563855176208e+00 9.521843421734738078e-01 -2.063498389737157268e+01 1.276924281140068507e+00 1.595074563855176208e+00 1.276924281140068507e+00 2.056065089596148709e+01
2.135657224307581004e+01 9.358571047095982642e-01 1.653080327801387028e+00 9.358571047095982642e-01 -2.078474118084485411e+01 1.257742925044975646e+00 1.653080327801387028e+00 1.257742925044975646e+00 2.065387144713697865e+01
2.151892122639270255e+01 9.164239146176331730e-01 1.707392526460140392e+00 9.164239146176331730e-01 -2.087833948301566167e+01 1.234070529338996636e+00 1.707392526460140392e+00 1.234070529338996636e+00 2.074201334604222424e+01
2.164336919318034091e+01 8.921219339194739195e-01 1.763383618431374256e+00 8.921219339194739195e-01 -2.093785625094310276e+01 1.203766505048718516e+00 1.763383618431374256e+00 1.203766505048718516e+00 2.083292541891305660e+01
2.172995811577153447e+01 8.653435855854055836e-01 1.815345366452654430e+00 8.653435855854055836e-01 -2.096639743725527794e+01 1.169852860136606720e+00 1.815345366452654430e+00 1.169852860136606720e+00 2.092039576049330307e+01
2.179631637394733445e+01 8.336125019795187496e-01 1.868860090787979100e+00 8.336125019795187496e-01 -2.097957674975825171e+01 1.129265614307384036e+00 1.868860090787979100e+00 1.129265614307384036e+00 2.101239911401724925e+01
2.184605358832958188e+01 8.000766080627151888e-01 1.918303498840537857e+00 8.000766080627151888e-01 -2.098142353240197977e+01 1.086076083843816154e+00 1.918303498840537857e+00 1.086076083843816154e+00 2.110331118688808516e+01
2.188748028081504415e+01 7.616719235397175769e-01 1.968838187546209317e+00 7.616719235397175769e-01 -2.098121367073791887e+01 1.036254924795948940e+00 1.968838187546209317e+00 1.036254924795948940e+00 2.119959571835885725e+01
2.192122603639590750e+01 7.220920136979830373e-01 2.015259587636303085e+00 7.220920136979830373e-01 -2.098121367073791887e+01 9.847968447684130044e-01 2.015259587636303085e+00 9.847968447684130044e-01 2.129327796519528704e+01
2.195316698166585567e+01 6.778112025813024522e-01 2.062394517384200654e+00 6.778112025813024522e-01 -2.098343820437695584e+01 9.270009424862620806e-01 2.062394517384200654e+00 9.270009424862620806e-01 2.139422142560819395e+01
2.198149830631396995e+01 6.331946128021258557e-01 2.105584047847769202e+00 6.331946128021258557e-01 -2.098872671831127334e+01 8.687853168759910316e-01 2.105584047847769202e+00 8.687853168759910316e-01 2.149268851838519012e+01
2.200840257164647085e+01 5.840869834120629989e-01 2.149067384641020872e+00 5.840869834120629989e-01 -2.099955558017677149e+01 8.046515923392254521e-01 2.149067384641020872e+00 8.046515923392254521e-01 2.159686384842461848e+01
2.203316624800556411e+01 5.353990773501204892e-01 2.188563349817131520e+00 5.353990773501204892e-01 -2.101357433933598884e+01 7.410215357962038896e-01 2.188563349817131520e+00 7.410215357962038896e-01 2.169818505983283785e+01
2.205650286504904756e+01 4.827237996710360135e-01 2.228059314993241724e+00 4.827237996710360135e-01 -2.103422472707950064e+01 6.721869099844919315e-01 2.228059314993241724e+00 6.721869099844919315e-01 2.180462689584411606e+01
2.207900003543629097e+01 4.311398026450640741e-01 2.263735797883458467e+00 4.311398026450640741e-01 -2.105705767612924006e+01 6.048213158212006890e-01 2.263735797883458467e+00 6.048213158212006890e-01 2.190855039188668130e+01
2.209977634017824144e+01 3.759881573300705160e-01 2.298992557445554752e+00 3.759881573300705160e-01 -2.108698394942420862e+01 5.330905990454593013e-01 2.298992557445554752e+00 5.330905990454593013e-01 2.201671309354325246e+01
2.212009094925925723e+01 3.226832946588056861e-01 2.330723641051441586e+00 3.226832946588056861e-01 -2.111867306069728301e+01 4.637942775728152167e-01 2.330723641051441586e+00 4.637942775728152167e-01 2.212223153823266841e+01
2.190242243129612376e+01 2.664823410235116485e-01 2.362286835326079970e+00 2.664823410235116485e-01 -2.141739015332042584e+01 3.910142524767734051e-01 2.362286835326079970e+00 3.910142524767734051e-01 2.208009131608939768e+01
2.196630432183601656e+01 2.127577550241266935e-01 2.389484906988268875e+00 2.127577550241266935e-01 -2.140475648114400897e+01 3.215080693400692025e-01 2.389484906988268875e+00 3.215080693400692025e-01 2.220726748450982058e+01
2.204533822452104985e+01 1.568925800513288060e-01 2.415969448992653312e+00 1.568925800513288060e-01 -2.138532329105204255e+01 2.494415739018317202e-01 2.415969448992653312e+00 2.494415739018317202e-01 2.236042452694088212e+01
2.210514879877817762e+01 1.040494130409962831e-01 2.439264093703323866e+00 1.040494130409962831e-01 -2.138796754801920130e+01 1.814463947463601790e-01 2.439264093703323866e+00 1.814463947463601790e-01 2.249628896825338842e+01
2.215152822653545783e+01 4.982115904786711680e-02 2.461257596096822375e+00 4.982115904786711680e-02 -2.141138810972831052e+01 1.119821839424679638e-01 2.461257596096822375e+00 1.119821839424679638e-01 2.262644517230346253e+01
2.218733062642411014e+01 -8.394466562403895974e-04 2.480229090527855007e+00 -8.394466562403895974e-04 -2.144706459261852416e+01 4.734479141195796492e-02 2.480229090527855007e+00 4.734479141195796492e-02 2.274535279115990960e+01
2.220991174147697578e+01 -5.200372035409213389e-02 2.497857470308903149e+00 -5.200372035409213389e-02 -2.150255201659601312e+01 -1.779626911229625907e-02 2.497857470308903149e+00 -1.779626911229625907e-02 2.285720905810394044e+01
2.221578786807065953e+01 -9.922259476761403907e-02 2.512379897461861855e+00 -9.922259476761403907e-02 -2.157629740534673246e+01 -7.752289870379996950e-02 2.512379897461861855e+00 -7.752289870379996950e-02 2.294921241162789016e+01
2.226661636310601722e+01 -1.458958288545796900e-01 2.525517237632024070e+00 -1.458958288545796900e-01 -2.161147022024320563e+01 -1.365779709703113520e-01 2.525517237632024070e+00 -1.365779709703113520e-01 2.308965183721690551e+01
2.226485352512791138e+01 -1.884138019931554109e-01 2.535800459170968413e+00 -1.884138019931554109e-01 -2.169973803614688279e+01 -1.899248059743881278e-01 2.535800459170968413e+00 -1.899248059743881278e-01 2.317481370049249279e+01
2.228718280618390679e+01 -2.296306328145585607e-01 2.544530704395868703e+00 -2.296306328145585607e-01 -2.177020958293826070e+01 -2.415927476659840978e-01 2.544530704395868703e+00 -2.415927476659840978e-01 2.328679588443496584e+01
2.230615430061493853e+01 -2.661885346938275276e-01 2.550574720320799571e+00 -2.661885346938275276e-01 -2.184471047367959429e+01 -2.871747010998372263e-01 2.550574720320799571e+00 -2.871747010998372263e-01 2.339004782315252839e+01
2.232634299269751921e+01 -3.007737369309315678e-01 2.554813925934813490e+00 -3.007737369309315678e-01 -2.192437396135681027e+01 -3.301963422321572694e-01 2.554813925934813490e+00 -3.301963422321572694e-01 2.349707727182317640e+01
2.234921791408007152e+01 -3.304901485618413348e-01 2.556870570242602447e+00 -3.304901485618413348e-01 -2.200067966240906259e+01 -3.670060781082982726e-01 2.556870570242602447e+00 -3.670060781082982726e-01 2.360175626985635944e+01
2.237188297379855939e+01 -3.575623032255939582e-01 2.557038459573850897e+00 -3.575623032255939582e-01 -2.208403671537373114e+01 -4.004160550266658292e-01 2.557038459573850897e+00 -4.004160550266658292e-01 2.370731668687858473e+01
2.239509367384360772e+01 -3.797236949503401959e-01 2.555275621595745950e+00 -3.797236949503401959e-01 -2.216588276435716764e+01 -4.277820160201025179e-01 2.555275621595745950e+00 -4.277820160201025179e-01 2.380809225796024009e+01
2.241973143320426232e+01 -3.986112447157489913e-01 2.551624028641100050e+00 -3.986112447157489913e-01 -2.225301732727492521e+01 -4.511186330635852948e-01 2.551624028641100050e+00 -4.511186330635852948e-01 2.391088250101687862e+01
2.244772697918987703e+01 -4.126300038749635135e-01 2.546335514706785652e+00 -4.126300038749635135e-01 -2.233540901658491507e+01 -4.685371511805733746e-01 2.546335514706785652e+00 -4.685371511805733746e-01 2.401136426576885796e+01
2.247610027617080419e+01 -4.230811147451563059e-01 2.539242190461553861e+00 -4.230811147451563059e-01 -2.242405458348390113e+01 -4.815905466851114203e-01 2.539242190461553861e+00 -4.815905466851114203e-01 2.411213983685051332e+01
2.250648824512670743e+01 -4.289572413388390570e-01 2.530931668564774473e+00 -4.289572413388390570e-01 -2.250862883410011861e+01 -4.892714835897110093e-01 2.530931668564774473e+00 -4.892714835897110093e-01 2.420913789797909388e+01
2.253922666472008274e+01 -4.308459963153799532e-01 2.521026198021138143e+00 -4.308459963153799532e-01 -2.259748426266316557e+01 -4.923354638849885001e-01 2.521026198021138143e+00 -4.923354638849885001e-01 2.430743710142484204e+01
2.257120958232284380e+01 -4.285375180107188764e-01 2.509945502158764885e+00 -4.285375180107188764e-01 -2.268487065957778981e+01 -4.905306535740716067e-01 2.509945502158764885e+00 -4.905306535740716067e-01 2.439914664861909799e+01
2.260713789920992767e+01 -4.222416680889159446e-01 2.497773525643278703e+00 -4.222416680889159446e-01 -2.277494328579238569e+01 -4.841928313194566735e-01 2.497773525643278703e+00 -4.841928313194566735e-01 2.449358439744614557e+01
2.264613019639229918e+01 -4.124621145437154524e-01 2.485265770465297397e+00 -4.124621145437154524e-01 -2.285913978541329428e+01 -4.739515821133238882e-01 2.485265770465297397e+00 -4.739515821133238882e-01 2.458508408297634773e+01
2.268604588489652940e+01 -3.986532170485609927e-01 2.471582789968578719e+00 -3.986532170485609927e-01 -2.294896057763101993e+01 -4.593452102947411797e-01 2.471582789968578719e+00 -4.593452102947411797e-01 2.467545051552062674e+01
2.272680102005699609e+01 -3.819902009221892158e-01 2.457899809471860486e+00 -3.819902009221892158e-01 -2.303466808123316412e+01 -4.417168305136929818e-01 2.457899809471860486e+00 -4.417168305136929818e-01 2.476090618512590069e+01
2.276965477185806819e+01 -3.616755918411718174e-01 2.443377382318901780e+00 -3.616755918411718174e-01 -2.312474070744775645e+01 -4.201850237811269317e-01 2.443377382318901780e+00 -4.201850237811269317e-01 2.484606804840148797e+01
2.281422938930443323e+01 -3.393463107851774629e-01 2.429274678494063089e+00 -3.393463107851774629e-01 -2.320969270905927928e+01 -3.966385450735840923e-01 2.429274678494063089e+00 -3.966385450735840923e-01 2.492724254005992890e+01
2.286044092773046899e+01 -3.137431877698456106e-01 2.414794223673916385e+00 -3.137431877698456106e-01 -2.329934561194575693e+01 -3.698182244067035329e-01 2.414794223673916385e+00 -3.698182244067035329e-01 2.500715786173401511e+01
2.290778571914242789e+01 -2.869228671029651623e-01 2.401069270844386150e+00 -2.869228671029651623e-01 -2.338442353055571843e+01 -3.419066230867106593e-01 2.401069270844386150e+00 -3.419066230867106593e-01 2.508283397779408830e+01
2.295685137619967620e+01 -2.574163171361154578e-01 2.387260373349231468e+00 -2.574163171361154578e-01 -2.347369868244688362e+01 -3.115186541308085921e-01 2.387260373349231468e+00 -3.115186541308085921e-01 2.515708303453854811e+01
2.300595900558974094e+01 -2.275739885067696033e-01 2.374500784174377710e+00 -2.275739885067696033e-01 -2.355936421371621847e+01 -2.810047681764704097e-01 2.374500784174377710e+00 -2.810047681764704097e-01 2.522629541134557130e+01
2.305775286427977022e+01 -1.956330432368227901e-01 2.362328807658891971e+00 -1.956330432368227901e-01 -2.364859739327456722e+01 -2.486021272455913589e-01 2.362328807658891971e+00 -2.486021272455913589e-01 2.529437453516666778e+01
2.311038616962604308e+01 -1.641537936278081866e-01 2.351583890459015169e+00 -1.641537936278081866e-01 -2.373346545022047493e+01 -2.169969606381406957e-01 2.351583890459015169e+00 -2.169969606381406957e-01 2.535871812136748815e+01
2.316499217461448268e+01 -1.312894570359969260e-01 2.341678419915378839e+00 -1.312894570359969260e-01 -2.382244679578195701e+01 -1.843005133775775239e-01 2.341678419915378839e+00 -1.843005133775775239e-01 2.542134084192302268e+01
2.321989198593260539e+01 -9.951640109729817385e-02 2.333367898018599007e+00 -9.951640109729817385e-02 -2.390765063139035362e+01 -1.530730977654350400e-01 2.333367898018599007e+00 -1.530730977654350400e-01 2.547976632919735351e+01
2.327668055222726551e+01 -6.715573249923116605e-02 2.326148656774931212e+00 -6.715573249923116605e-02 -2.399663197695183214e+01 -1.215938481564204088e-01 2.326148656774931212e+00 -1.215938481564204088e-01 2.553617714449670828e+01
2.333338517385630340e+01 -3.651592954645694472e-02 2.320566336510932803e+00 -3.651592954645694472e-02 -2.408233948055397988e+01 -9.217124285519477656e-02 2.320566336510932803e+00 -9.217124285519477656e-02 2.558868453284454603e+01
2.339105515914001998e+01 -5.960071259306766109e-03 2.316117269232858433e+00 -5.960071259306766109e-03 -2.417216027277170198e+01 -6.312638854927728194e-02 2.316117269232858433e+00 -6.312638854927728194e-02 2.563825385789554190e+01
2.344998431440809128e+01 2.241322572161839888e-02 2.313766818595385466e+00 2.241322572161839888e-02 -2.425786777637384262e+01 -3.651592954645694472e-02 2.313766818595385466e+00 -3.651592954645694472e-02 2.568522089831218835e+01
2.351050841832302396e+01 4.998904837911519183e-02 2.313011316604769441e+00 4.998904837911519183e-02 -2.434697503893375981e+01 -1.091280653112506466e-02 2.313011316604769441e+00 -1.091280653112506466e-02 2.572975354342574050e+01
2.357598525750977814e+01 7.647359038349947624e-02 2.314228514256317926e+00 7.647359038349947624e-02 -2.443654399715461167e+01 1.330522950141017555e-02 2.314228514256317926e+00 1.330522950141017555e-02 2.577487380119866600e+01
2.363915361839186602e+01 9.951640109729817385e-02 2.316998688221911351e+00 9.951640109729817385e-02 -2.452099233077239404e+01 3.416547890898385259e-02 2.316998688221911351e+00 3.416547890898385259e-02 2.581495737903414422e+01
2.370047519663022939e+01 1.210062354970521531e-01 2.321615644831233283e+00 1.210062354970521531e-01 -2.461148468031510816e+01 5.334683500407675499e-02 2.321615644831233283e+00 5.334683500407675499e-02 2.584941666427280893e+01
2.376737909513258273e+01 1.406492872530772931e-01 2.328163328749908612e+00 1.406492872530772931e-01 -2.470109561086876937e+01 7.063943612262878202e-02 2.328163328749908612e+00 7.063943612262878202e-02 2.588509314716302612e+01
2.383180662599903599e+01 1.568506077185168046e-01 2.336054127318567986e+00 1.568506077185168046e-01 -2.478613155714592153e+01 8.482608461309136538e-02 2.336054127318567986e+00 8.482608461309136538e-02 2.591661436910485605e+01
2.389795502251077863e+01 1.709113392105433282e-01 2.346001570195016317e+00 1.709113392105433282e-01 -2.487376978805741956e+01 9.691411646295297611e-02 2.346001570195016317e+00 9.691411646295297611e-02 2.594561725107795880e+01
2.396662175899124492e+01 1.825796477322847167e-01 2.357711851049570040e+00 1.825796477322847167e-01 -2.496216352095953184e+01 1.069455040050256295e-01 2.357711851049570040e+00 1.069455040050256295e-01 2.597331899073389039e+01
2.403386143615609427e+01 1.911839759587487253e-01 2.370429467891611797e+00 1.911839759587487253e-01 -2.504518479526170083e+01 1.143326345799410421e-01 2.370429467891611797e+00 1.143326345799410421e-01 2.599862830741954056e+01
2.410265408963499567e+01 1.972699642164915113e-01 2.385035839710194949e+00 1.972699642164915113e-01 -2.512963312887948675e+01 1.195791761814434945e-01 2.385035839710194949e+00 1.195791761814434945e-01 2.602179703513177600e+01
2.417392311074980427e+01 2.009215571711372161e-01 2.401488994172506608e+00 2.009215571711372161e-01 -2.521450118582539091e+01 1.229369628064050368e-01 2.401488994172506608e+00 1.229369628064050368e-01 2.604379053752527184e+01
2.424397493421306393e+01 2.018869208258136927e-01 2.418739622958246738e+00 2.018869208258136927e-01 -2.529382889484011088e+01 1.241961327907656343e-01 2.418739622958246738e+00 1.241961327907656343e-01 2.606410514660629474e+01
2.431507606599662452e+01 2.004598615102050063e-01 2.437669145056467368e+00 2.004598615102050063e-01 -2.537428985684074689e+01 1.236924647970213953e-01 2.437669145056467368e+00 1.236924647970213953e-01 2.608223719438107935e+01
2.438844370375203496e+01 1.967243238899352709e-01 2.458319532799980500e+00 1.967243238899352709e-01 -2.545437306784608111e+01 1.215518758236084074e-01 2.458319532799980500e+00 1.215518758236084074e-01 2.609931993383557725e+01
2.446336431782149035e+01 1.907642526306285446e-01 2.480690786188787023e+00 1.907642526306285446e-01 -2.553416247252173221e+01 1.178583105361506872e-01 2.480690786188787023e+00 1.178583105361506872e-01 2.611522744797133200e+01
2.453509503459723007e+01 1.831252880588409571e-01 2.503104011910405546e+00 1.831252880588409571e-01 -2.560782391660682222e+01 1.131154369283924876e-01 2.503104011910405546e+00 1.131154369283924876e-01 2.612920423479773646e+01
2.460787505969327427e+01 1.735975685105125565e-01 2.527070213946068566e+00 1.735975685105125565e-01 -2.568131747136067489e+01 1.072393103347097643e-01 2.527070213946068566e+00 1.072393103347097643e-01 2.614162804531009243e+01
2.468183031010805450e+01 1.623909556497033502e-01 2.552589392295776083e+00 1.623909556497033502e-01 -2.575409749645671553e+01 1.003558477535385629e-01 2.552589392295776083e+00 1.003558477535385629e-01 2.615300254750214748e+01
2.475675092417750989e+01 1.496733388076614546e-01 2.579745491625152987e+00 1.496733388076614546e-01 -2.582612201956213838e+01 9.271688318175101695e-02 2.579745491625152987e+00 9.271688318175101695e-02 2.616320182437546649e+01
2.482827177928918871e+01 1.364520539718753200e-01 2.606649756957657882e+00 1.364520539718753200e-01 -2.589264816706919348e+01 8.491002927871539596e-02 2.606649756957657882e+00 8.491002927871539596e-02 2.617201601426599211e+01
2.489996052373211555e+01 1.221814608157886922e-01 2.635065026271394828e+00 1.221814608157886922e-01 -2.595888050824655835e+01 7.664147971474756516e-02 2.635065026271394828e+00 7.664147971474756516e-02 2.617927722784247280e+01
2.497190110217191616e+01 1.070714210034616892e-01 2.664949327233552712e+00 1.070714210034616892e-01 -2.602431537510049608e+01 6.812109615390760098e-02 2.664949327233552712e+00 6.812109615390760098e-02 2.618536321610021389e+01
2.504354787428203721e+01 9.145771319739043337e-02 2.696302659844131089e+00 9.145771319739043337e-02 -2.608912065696225113e+01 5.947479559463159787e-02 2.696302659844131089e+00 5.947479559463159787e-02 2.618985425571110426e+01
2.511477492306403292e+01 7.559217139444707190e-02 2.729125024103130404e+00 7.559217139444707190e-02 -2.615321240916620837e+01 5.087046736816760312e-02 2.729125024103130404e+00 5.087046736816760312e-02 2.619300218067200348e+01
2.518172079389920270e+01 6.065002091336814394e-02 2.761275831037137252e+00 6.065002091336814394e-02 -2.621163789644053921e+01 4.297966879950794461e-02 2.761275831037137252e+00 4.297966879950794461e-02 2.619547854830791422e+01
2.524816299674063202e+01 4.579181509791324656e-02 2.794727780288316588e+00 4.579181509791324656e-02 -2.626934985405706513e+01 3.534070422772039866e-02 2.794727780288316588e+00 3.534070422772039866e-02 2.619673771829227604e+01
2.531410153158831378e+01 3.131136027776652841e-02 2.829606788855105304e+00 3.131136027776652841e-02 -2.632592855868767145e+01 2.807949065124103194e-02 2.829606788855105304e+00 2.807949065124103194e-02 2.619707349695476495e+01
2.537907470278132394e+01 1.737654578417606455e-02 2.865828912071877621e+00 1.737654578417606455e-02 -2.638158387199640131e+01 2.123800040288185628e-02 2.865828912071877621e+00 2.123800040288185628e-02 2.619631799496415070e+01
2.544270475932433939e+01 4.239205614013967505e-03 2.903310205273011757e+00 4.239205614013967505e-03 -2.643652565564734047e+01 1.494215048107893316e-02 2.903310205273011757e+00 1.494215048107893316e-02 2.619426135065636174e+01
2.550499170121737791e+01 -7.932770901471680736e-03 2.942092640791317049e+00 -7.932770901471680736e-03 -2.649037615864516226e+01 9.275885551456303571e-03 2.942092640791317049e+00 9.275885551456303571e-03 2.619115539802827541e+01
2.556274563116672027e+01 -1.838388177166453211e-02 2.979741823323698746e+00 -1.838388177166453211e-02 -2.653960970503365857e+01 4.491039610886083527e-03 2.979741823323698746e+00 4.491039610886083527e-03 2.618771366673768597e+01
2.561823305514420923e+01 -2.765976732312083047e-02 3.018440314176380479e+00 -2.765976732312083047e-02 -2.658859141742528820e+01 2.938063296841363537e-04 3.018440314176380479e+00 2.938063296841363537e-04 2.618255106980181068e+01
2.567304892179670617e+01 -3.567648289021655567e-02 3.058104168683739132e+00 -3.567648289021655567e-02 -2.663572634717318266e+01 -3.273841959337519571e-03 3.058104168683739132e+00 -3.273841959337519571e-03 2.617743044519874118e+01
2.572526250381485724e+01 -4.239205614013966811e-02 3.098691414512961817e+00 -4.239205614013966811e-02 -2.668235760892733666e+01 -6.253877588990900890e-03 3.098691414512961817e+00 -6.253877588990900890e-03 2.617063092728319518e+01